------------------------------------------------------------
          Invoking FHI-aims ...

          When using FHI-aims, please cite the following reference:

            Volker Blum, Ralf Gehrke, Felix Hanke, Paula Havu,
            Ville Havu, Xinguo Ren, Karsten Reuter, and Matthias Scheffler,
            'Ab Initio Molecular Simulations with Numeric Atom-Centered Orbitals',
            Computer Physics Communications 180, 2175-2196 (2009)

          In addition, many other developments in FHI-aims are likely important for
          your particular application. A partial list of references is given at the end of
          this file. Thank you for giving credit to the authors of these developments.

          For any questions about FHI-aims, please visit our slack channel at

            https://fhi-aims.slack.com

          and our main development and support site at

            https://aims-git.rz-berlin.mpg.de .

          The latter site, in particular, has a wiki to collect information, as well
          as an issue tracker to log discussions, suggest improvements, and report issues
          or bugs. https://aims-git.rz-berlin.mpg.de is also the main development site
          of the project and all new and updated code versions can be obtained there.
          Please send an email to aims-coordinators@fhi-berlin.mpg.de and we will add
          you to these sites. They are for you and everyone is welcome there.

------------------------------------------------------------



  Date     :  20241129, Time     :  002700.269
  Time zero on CPU 1             :   0.131023000000000E+00  s.
  Internal wall clock time zero  :           502072020.269  s.

  FHI-aims created a unique identifier for this run for later identification
  aims_uuid : A1FAC2DD-EC9C-4572-A749-E3A7D0B1867A

  Build configuration of the current instance of FHI-aims
  -------------------------------------------------------
  FHI-aims version      : 221103
  Commit number         : GITDIR-NOTFOUND
  CMake host system     : Linux-3.10.0-1160.59.1.el7.x86_64
  CMake version         : 3.17.5
  Fortran compiler      : /home/spack/spack/opt/spack/linux-centos7-broadwell/gcc-8.2.0/intel-oneapi-mpi-2021.13.1-tc3o22m5brhwlepjze7ymovtbug6ollk/mpi/2021.13/bin/mpiifort (Intel) version 20.2.8.20221119
  Fortran compiler flags: -O3 -ip -fp-model precise
  C compiler            : /home/spack/spack/opt/spack/linux-centos7-broadwell/gcc-8.2.0/intel-oneapi-compilers-2023.0.0-qdtyksft5ugoazragh7yusjezd4gp7hm/compiler/2023.0.0/linux/bin/intel64/icc (Intel) version 20.2.8.20221119
  C compiler flags      : -O3 -ip -fp-model precise -std=gnu99
  HIP compiler          :
  HIP compiler flags    :
  HIP GPU arch          :
  Using MPI
  Using ScaLAPACK
  Using LibXC
  Using i-PI
  Using RLSY
  Linking against: /home/spack/spack/opt/spack/linux-centos7-broadwell/gcc-8.2.0/intel-oneapi-mkl-2024.2.1-2ept5lpbp5bastej6jsrfm45y5ab2lpn/mkl/latest/lib/intel64/libmkl_intel_lp64.so
                   /home/spack/spack/opt/spack/linux-centos7-broadwell/gcc-8.2.0/intel-oneapi-mkl-2024.2.1-2ept5lpbp5bastej6jsrfm45y5ab2lpn/mkl/latest/lib/intel64/libmkl_sequential.so
                   /home/spack/spack/opt/spack/linux-centos7-broadwell/gcc-8.2.0/intel-oneapi-mkl-2024.2.1-2ept5lpbp5bastej6jsrfm45y5ab2lpn/mkl/latest/lib/intel64/libmkl_core.so
                   /home/spack/spack/opt/spack/linux-centos7-broadwell/gcc-8.2.0/intel-oneapi-mkl-2024.2.1-2ept5lpbp5bastej6jsrfm45y5ab2lpn/mkl/latest/lib/intel64/libmkl_blacs_intelmpi_lp64.so
                   /home/spack/spack/opt/spack/linux-centos7-broadwell/gcc-8.2.0/intel-oneapi-mkl-2024.2.1-2ept5lpbp5bastej6jsrfm45y5ab2lpn/mkl/latest/lib/intel64/libmkl_scalapack_lp64.so

  Using        1 parallel tasks.
  Task        0 on host f001 reporting.

  Performing system and environment tests:
  | Environment variable OMP_NUM_THREADS correctly set to 1.
  | Checking for ScaLAPACK...
  | Testing pdtran()...
  | All pdtran() tests passed.

  Obtaining array dimensions for all initial allocations:
  
  -----------------------------------------------------------------------
  Parsing control.in (first pass over file, find array dimensions only).
  The contents of control.in will be repeated verbatim below
  unless switched off by setting 'verbatim_writeout .false.' .
  in the first line of control.in .
  -----------------------------------------------------------------------
  
  xc		pbe
  spin		none
  relativistic	atomic_zora scalar
  charge		0.
  k_grid 		13 13 13
  ################################################################################
  #
  #  FHI-aims code project
  #  VB, Fritz-Haber Institut, 2009
  #
  #  Suggested "light" defaults for Pt atom (to be pasted into control.in file)
  #  Be sure to double-check any results obtained with these settings for post-processing,
  #  e.g., with the "tight" defaults and larger basis sets.
  #
  ################################################################################
    species        Pt
  #     global species definitions
      nucleus             78
      mass                195.084
  #
      l_hartree           4
  #
      cut_pot             3.5  1.5  1.0
      basis_dep_cutoff    1e-4
  #
      radial_base         72 5.0
      radial_multiplier   1
      angular_grids specified
        division   0.4222   50
        division   0.9557  110
        division   1.2477  194
        division   1.5393  302
  #      division   1.9382  434
  #      division   2.0887  590
  #      division   2.1534  770
  #      division   2.2208  974
  #      division   2.6985 1202
  #      outer_grid    974
        outer_grid    302
  ################################################################################
  #
  #  Definition of "minimal" basis
  #
  ################################################################################
  #     valence basis states
      valence      6  s   1.
      valence      5  p   6.
      valence      5  d   9.
      valence      4  f  14.
  #     ion occupancy
      ion_occ     6  s   0.
      ion_occ     5  p   6.
      ion_occ     5  d   8.
      ion_occ     4  f   14.
  ################################################################################
  #
  #  Suggested additional basis functions. For production calculations,
  #  uncomment them one after another (the most important basis functions are
  #  listed first).
  #
  #  Constructed for dimers: 2.00, 2.275, 2.75, 3.75 AA
  #
  ################################################################################
  #  "First tier" - max. impr. -193.66  meV, min. impr. -18.25 meV
       hydro 4 f 7.4
       ionic 6 p auto
  #     hydro 5 g 9.8
       ionic 6 s auto
       hydro 3 d 2.6
  #  "Second tier" - max. impr. -10.25  meV, min. impr. -0.56 meV
  #     hydro 6 h 14
  #     hydro 5 f 14
  #     hydro 4 d 4
  #     hydro 3 p 3.3
  #     hydro 5 g 16.4
  #     hydro 1 s 0.5
  #  "Third tier" - max. impr. -0.72  meV, min. impr. -0.18 meV
  #     hydro 5 f 9
  #     ionic 5 d auto
  #     hydro 6 h 16.4
  #     hydro 5 g 12.4
  #     hydro 5 g 34
  #     hydro 5 s 13.6
  #     hydro 5 p 10.4
  #  Further functions: ################################################################################
  #
  #  FHI-aims code project
  #  VB, Fritz-Haber Institut, 2009
  #
  #  Suggested "light" defaults for O atom (to be pasted into control.in file)
  #  Be sure to double-check any results obtained with these settings for post-processing,
  #  e.g., with the "tight" defaults and larger basis sets.
  #
  ################################################################################
    species        O
  #     global species definitions
      nucleus             8
      mass                15.9994
  #
      l_hartree           4
  #
      cut_pot             3.5  1.5  1.0
      basis_dep_cutoff    1e-4
  #
      radial_base         36 5.0
      radial_multiplier   1
       angular_grids specified
        division   0.2659   50
        division   0.4451  110
        division   0.6052  194
        division   0.7543  302
  #      division   0.8014  434
  #      division   0.8507  590
  #      division   0.8762  770
  #      division   0.9023  974
  #      division   1.2339 1202
  #      outer_grid 974
        outer_grid 302
  ################################################################################
  #
  #  Definition of "minimal" basis
  #
  ################################################################################
  #     valence basis states
      valence      2  s   2.
      valence      2  p   4.
  #     ion occupancy
      ion_occ      2  s   1.
      ion_occ      2  p   3.
  ################################################################################
  #
  #  Suggested additional basis functions. For production calculations,
  #  uncomment them one after another (the most important basis functions are
  #  listed first).
  #
  #  Constructed for dimers: 1.0 A, 1.208 A, 1.5 A, 2.0 A, 3.0 A
  #
  ################################################################################
  #  "First tier" - improvements: -699.05 meV to -159.38 meV
       hydro 2 p 1.8
       hydro 3 d 7.6
       hydro 3 s 6.4
  #  "Second tier" - improvements: -49.91 meV to -5.39 meV
  #     hydro 4 f 11.6
  #     hydro 3 p 6.2
  #     hydro 3 d 5.6
  #     hydro 5 g 17.6
  #     hydro 1 s 0.75
  #  "Third tier" - improvements: -2.83 meV to -0.50 meV
  #     ionic 2 p auto
  #     hydro 4 f 10.8
  #     hydro 4 d 4.7
  #     hydro 2 s 6.8
  #  "Fourth tier" - improvements: -0.40 meV to -0.12 meV
  #     hydro 3 p 5
  #     hydro 3 s 3.3
  #     hydro 5 g 15.6
  #     hydro 4 f 17.6
  #     hydro 4 d 14
  # Further basis functions - -0.08 meV and below
  #     hydro 3 s 2.1
  #     hydro 4 d 11.6
  #     hydro 3 p 16
  #     hydro 2 s 17.2
  
  -----------------------------------------------------------------------
  Completed first pass over input file control.in .
  -----------------------------------------------------------------------
  
  
  -----------------------------------------------------------------------
  Parsing geometry.in (first pass over file, find array dimensions only).
  The contents of geometry.in will be repeated verbatim below
  unless switched off by setting 'verbatim_writeout .false.' .
  in the first line of geometry.in .
  -----------------------------------------------------------------------
  
  lattice_vector 3.1586040000000000 0.0000000000000000 0.0000000000000000
  lattice_vector 0.0000000000000000 3.1586040000000000 0.0000000000000000
  lattice_vector 0.0000000000000000 0.0000000000000000 5.3588940000000003
  
  atom 0.0000000000000000 1.5793020000000000 2.6794470000000001 Pt
  atom 1.5793020000000000 0.0000000000000000 0.0000000000000000 Pt
  atom 0.0000000000000000 0.0000000000000000 1.3397235000000001 O
  atom 0.0000000000000000 0.0000000000000000 4.0191705000000004 O
  
  -----------------------------------------------------------------------
  Completed first pass over input file geometry.in .
  -----------------------------------------------------------------------
  

  Basic array size parameters:
  | Number of species                 :        2
  | Number of atoms                   :        4
  | Number of lattice vectors         :        3
  | Max. basis fn. angular momentum   :        3
  | Max. atomic/ionic basis occupied n:        6
  | Max. number of basis fn. types    :        3
  | Max. radial fns per species/type  :       14
  | Max. logarithmic grid size        :     1487
  | Max. radial integration grid size :       72
  | Max. angular integration grid size:      302
  | Max. angular grid division number :        8
  | Radial grid for Hartree potential :     1487
  | Number of spin channels           :        1

------------------------------------------------------------
          Reading file control.in.
------------------------------------------------------------
  XC: Using PBE gradient-corrected functionals.
  Spin treatment: No spin polarisation.
  Scalar relativistic treatment of kinetic energy: on-site free-atom approximation to ZORA.
  Charge =   0.000000E+00: Neutral system requested explicitly.
  Found k-point grid:        13        13        13
 
  Reading configuration options for species Pt                  .
  | Found nuclear charge :  78.0000
  | Found atomic mass :    195.084000000000      amu
  | Found l_max for Hartree potential  :   4
  | Found cutoff potl. onset [A], width [A], scale factor :    3.50000    1.50000    1.00000
  | Threshold for basis-dependent cutoff potential is   0.100000E-03
  | Found data for basic radial integration grid :    72 points, outermost radius =    5.000 A
  | Found multiplier for basic radial grid :   1
  | Found angular grid specification: user-specified.
  | Specified grid contains     5 separate shells.
  | Check grid settings after all constraints further below.
  | Found free-atom valence shell :  6 s   1.000
  | Found free-atom valence shell :  5 p   6.000
  | Found free-atom valence shell :  5 d   9.000
  | Found free-atom valence shell :  4 f  14.000
  | Found free-ion valence shell :  6 s   0.000
  | Found free-ion valence shell :  5 p   6.000
  | Found free-ion valence shell :  5 d   8.000
  | Found free-ion valence shell :  4 f  14.000
  | Found hydrogenic basis function :  4 f   7.400
  | Found ionic basis function :  6 p , default cutoff radius.
  | Found ionic basis function :  6 s , default cutoff radius.
  | Found hydrogenic basis function :  3 d   2.600
  Species Pt                  : Missing cutoff potential type.
  Defaulting to exp(1/x)/(1-x)^2 type cutoff potential.
  Species Pt: No 'logarithmic' tag. Using default grid for free atom:
  | Default logarithmic grid data [bohr] : 0.1000E-03 0.1000E+03 0.1012E+01
  | Will include ionic basis functions of  2.0-fold positive Pt                   ion.
  Species Pt: On-site basis accuracy parameter (for Gram-Schmidt orthonormalisation) not specified.
  Using default value basis_acc =  0.1000000E-03.
  Species Pt                  : Using default innermost maximum threshold i_radial=  2 for radial functions.
  Species Pt                  : Default cutoff onset for free atom density etc. : 0.35000000E+01 AA.
  Species Pt                  : Basic radial grid will be enhanced according to radial_multiplier =   1, to contain    72 grid points.
 
  Reading configuration options for species O                   .
  | Found nuclear charge :   8.0000
  | Found atomic mass :    15.9994000000000      amu
  | Found l_max for Hartree potential  :   4
  | Found cutoff potl. onset [A], width [A], scale factor :    3.50000    1.50000    1.00000
  | Threshold for basis-dependent cutoff potential is   0.100000E-03
  | Found data for basic radial integration grid :    36 points, outermost radius =    5.000 A
  | Found multiplier for basic radial grid :   1
  | Found angular grid specification: user-specified.
  | Specified grid contains     5 separate shells.
  | Check grid settings after all constraints further below.
  | Found free-atom valence shell :  2 s   2.000
  | Found free-atom valence shell :  2 p   4.000
  | Found free-ion valence shell :  2 s   1.000
  | Found free-ion valence shell :  2 p   3.000
  | Found hydrogenic basis function :  2 p   1.800
  | Found hydrogenic basis function :  3 d   7.600
  | Found hydrogenic basis function :  3 s   6.400
  Species O                   : Missing cutoff potential type.
  Defaulting to exp(1/x)/(1-x)^2 type cutoff potential.
  Species O : No 'logarithmic' tag. Using default grid for free atom:
  | Default logarithmic grid data [bohr] : 0.1000E-03 0.1000E+03 0.1012E+01
  Species O : On-site basis accuracy parameter (for Gram-Schmidt orthonormalisation) not specified.
  Using default value basis_acc =  0.1000000E-03.
  Species O                   : Using default innermost maximum threshold i_radial=  2 for radial functions.
  Species O                   : Default cutoff onset for free atom density etc. : 0.35000000E+01 AA.
  Species O                   : Basic radial grid will be enhanced according to radial_multiplier =   1, to contain    36 grid points.
 
  Finished reading input file 'control.in'.
 
------------------------------------------------------------


------------------------------------------------------------
          Reading geometry description geometry.in.
------------------------------------------------------------
  | The smallest distance between any two atoms is         2.07100311 AA.
  | The first atom of this pair is atom number                      1 .
  | The second atom of this pair is atom number                     4 .
  | Wigner-Seitz cell of the first atom image           0     0     0 .
  | (The Wigner-Seitz cell of the second atom is 0 0 0  by definition.)

  Symmetry information by spglib:
  | Precision set to  0.1E-04
  | Number of Operations  : 16
  | Space group           : 131
  | International         : P4_2/mmc
  | Schoenflies           : D4h^9
  Input structure read successfully.
  The structure contains        4 atoms,  and a total of        172.000 electrons.

  Input geometry:
  | Unit cell:
  |        3.15860400        0.00000000        0.00000000
  |        0.00000000        3.15860400        0.00000000
  |        0.00000000        0.00000000        5.35889400
  | Atomic structure:
  |       Atom                x [A]            y [A]            z [A]
  |    1: Species Pt            0.00000000        1.57930200        2.67944700
  |    2: Species Pt            1.57930200        0.00000000        0.00000000
  |    3: Species O             0.00000000        0.00000000        1.33972350
  |    4: Species O             0.00000000        0.00000000        4.01917050

  Lattice parameters for 3D lattice (in Angstroms) :     3.158604    3.158604    5.358894
  Angle(s) between unit vectors (in degrees)       :    90.000000   90.000000   90.000000


  Quantities derived from the lattice vectors (in Angstrom^-1):
  | Reciprocal lattice vector 1:  1.989229  0.000000  0.000000
  | Reciprocal lattice vector 2:  0.000000  1.989229  0.000000
  | Reciprocal lattice vector 3:  0.000000  0.000000  1.172478
  | Unit cell volume                               :   0.534645E+02  Angstrom^3

  Fractional coordinates:
                         L1                L2                L3
       atom_frac         0.00000000        0.50000000        0.50000000  Pt
       atom_frac         0.50000000        0.00000000        0.00000000  Pt
       atom_frac         0.00000000        0.00000000        0.25000000  O
       atom_frac         0.00000000        0.00000000        0.75000000  O

 
  Finished reading input file 'geometry.in'.
 

 
  Consistency checks for stacksize environment parameter are next.
 
  | Maximum stacksize for task 0: unlimited
  | Current stacksize for task 0: unlimited
 
  Consistency checks for the contents of control.in are next.
 
  MPI_IN_PLACE appears to work with this MPI implementation.
  | Keeping use_mpi_in_place .true. (see manual).
  Target number of points in a grid batch is not set. Defaulting to  100
  Method for grid partitioning is not set. Defaulting to parallel hash+maxmin partitioning.
  Batch size limit is not set. Defaulting to    200
  By default, will store active basis functions for each batch.
  If in need of memory, prune_basis_once .false. can be used to disable this option.
  communication_type for Hartree potential was not specified.
  Defaulting to calc_hartree .
  Defaulting to Pulay charge density mixer.
  Pulay mixer: Number of relevant iterations not set.
  Defaulting to    8 iterations.
  Pulay mixer: Number of initial linear mixing iterations not set.
  Defaulting to    0 iterations.
  Work space size for distributed Hartree potential not set.
  Defaulting to   0.200000E+03 MB.
  Mixing parameter for charge density mixing has not been set.
  Using default: charge_mix_param =     0.0500.
  The mixing parameter will be adjusted in iteration number     2 of the first full s.c.f. cycle only.
  Algorithm-dependent basis array size parameters:
  | n_max_pulay                         :        8
  Maximum number of self-consistency iterations not provided.
  Presetting  1000 iterations.
  Presetting      1001 iterations before the initial mixing cycle
  is restarted anyway using the sc_init_iter criterion / keyword.
  Presetting a factor      1.000 between actual scf density residual
  and density convergence criterion sc_accuracy_rho below which sc_init_iter
  takes no effect.
 * No s.c.f. convergence criteria (sc_accuracy_*) were provided in control.in.
 * The run will proceed with a reasonable default guess, but please check whether.
 * the s.c.f. cycles seem to take too much or too little time.
  Calculation of forces was not defined in control.in. No forces will be calculated.
  Geometry relaxation not requested: no relaxation will be performed.
 * Notice: The s.c.f. convergence criterion sc_accuracy_rho was not provided.
 * We used to stop in this case, and ask the user to provide reasonable
 * scf convergence criteria. However, this led some users to employ criteria
 * that led to extremely long run times, e.g., for simple relaxation.
 * We now preset a default value for sc_accuracy_rho if it is not set.
 * You may still wish to check if this setting is too tight or too loose for your needs.
 * Based on n_atoms and forces and force-correction status, FHI-aims chose sc_accuracy_rho =  0.800000E-05 .
  No accuracy limit for integral partition fn. given. Defaulting to  0.1000E-14.
  No threshold value for u(r) in integrations given. Defaulting to  0.1000E-05.
  No occupation type (smearing scheme) given. Defaulting to Gaussian broadening, width =  0.1000E-01 eV.
  The width will be adjusted in iteration number     2 of the first full s.c.f. cycle only.
  S.C.F. convergence parameters will be adjusted in iteration number     2 of the first full s.c.f. cycle only.
  No accuracy for occupation numbers given. Defaulting to  0.1000E-12.
  No threshold value for occupation numbers given. Defaulting to  0.0000E+00.
  No accuracy for fermi level given. Defaulting to  0.1000E-19.
  Maximum # of iterations to find E_F not set. Defaulting to  200.
  Preferred method for the eigenvalue solver ('KS_method') not specified in 'control.in'.
  Defaulting to serial version LAPACK (via ELSI).
  Will not use alltoall communication since running on < 1024 CPUs.
  Threshold for basis singularities not set.
  Default threshold for basis singularities:  0.1000E-04
  partition_type (choice of integration weights) for integrals was not specified.
  | Using a version of the partition function of Stratmann and coworkers ('stratmann_sparse').
  | At each grid point, the set of atoms used to build the partition table is smoothly restricted to
  | only those atoms whose free-atom density would be non-zero at that grid point.
  Partitioning for Hartree potential was not defined. Using partition_type for integrals.
  | Adjusted default value of keyword multip_moments_threshold to:       0.10000000E-11
  | This value may affect high angular momentum components of the Hartree potential in periodic systems.
  Angular momentum expansion for Kerker preconditioner not set explicitly.
  | Using default value of   0
  No explicit requirement for turning off preconditioner.
  | By default, it will be turned off when the charge convergence reaches
  | sc_accuracy_rho  =   0.800000E-05
  No special mixing parameter while Kerker preconditioner is on.
  Using default: charge_mix_param =     0.0500.
  No q(lm)/r^(l+1) cutoff set for long-range Hartree potential.
  | Using default value of  0.100000E-09 .
  | Verify using the multipole_threshold keyword.
  Defaulting to new monopole extrapolation.
  Density update method: automatic selection selected.
  Using density matrix based charge density update.
  Using density matrix based charge density update.
  Using packed matrix style: index .
  Defaulting to use time-reversal symmetry for k-point grid.
  Charge integration errors on the 3D integration grid will be compensated
  by explicit normalization and distribution of residual charges.
  Use the "compensate_multipole_errors" flag to change this behaviour.
  Set 'collect_eigenvectors' to be '.true.' for all serial calculations. This is mandatory.
  Set 'collect_eigenvectors' to be '.true.' for KS_method lapack_fast and serial.
 
  Consistency checks for the contents of geometry.in are next.
 

  Range separation radius for Ewald summation (hartree_convergence_parameter):      3.34000856 bohr.
  Number of empty states per atom not set in control.in - providing a guess from actual geometry.
  | Total number of empty states used during s.c.f. cycle:       24
  If you use a very high smearing, use empty_states (per atom!) in control.in to increase this value.

  Structure-dependent array size parameters: 
  | Maximum number of distinct radial functions  :       24
  | Maximum number of basis functions            :      140
  | Number of Kohn-Sham states (occupied + empty):      110
------------------------------------------------------------

------------------------------------------------------------
          Preparing all fixed parts of the calculation.
------------------------------------------------------------
  Determining machine precision:
    2.225073858507201E-308
  Setting up grids for atomic and cluster calculations.

  Creating wave function, potential, and density for free atoms.
  Runtime choices for atomic solver:
  | atomic solver xc        : PBE
  | compute density gradient: 1
  | compute kinetic density : F

  Species: Pt

  List of occupied orbitals and eigenvalues:
    n    l              occ      energy [Ha]    energy [eV]
    1    0           2.0000     -3153.099128    -85800.1927
    2    0           2.0000      -515.585619    -14029.7985
    3    0           2.0000      -119.497959     -3251.7049
    4    0           2.0000       -25.565949      -695.6849
    5    0           2.0000        -3.732860      -101.5763
    6    0           1.0000        -0.202680        -5.5152
    2    1           6.0000      -445.949326    -12134.8986
    3    1           6.0000       -99.652350     -2711.6784
    4    1           6.0000       -19.101055      -519.7661
    5    1           6.0000        -2.050716       -55.8028
    3    2          10.0000       -78.240654     -2129.0365
    4    2          10.0000       -11.272849      -306.7498
    5    2           9.0000        -0.221200        -6.0192
    4    3          14.0000        -2.577894       -70.1481


  Species: O

  List of occupied orbitals and eigenvalues:
    n    l              occ      energy [Ha]    energy [eV]
    1    0           2.0000       -18.926989      -515.0296
    2    0           2.0000        -0.880247       -23.9527
    2    1           4.0000        -0.331514        -9.0210


  Adding cutoff potential to free-atom effective potential.
  Creating fixed part of basis set: Ionic, confined, hydrogenic.
 
  Pt                   ion:

  List of free ionic orbitals and eigenvalues:
    n    l      energy [Ha]    energy [eV]
    1    0     -3153.944388    -85823.1934
    2    0      -516.374474    -14051.2643
    3    0      -120.278274     -3272.9384
    4    0       -26.344243      -716.8633
    5    0        -4.507613      -122.6584
    2    1      -446.736765    -12156.3259
    3    1      -100.432254     -2732.9007
    4    1       -19.879176      -540.9399
    5    1        -2.820901       -76.7606
    3    2       -79.020090     -2150.2461
    4    2       -12.050716      -327.9167
    5    2        -0.950990       -25.8778
    4    3        -3.355307       -91.3026


  List of ionic basis orbitals and eigenvalues:
    n    l      energy [Ha]    energy [eV]    outer radius [A]
    6    1        -0.525532       -14.3005       4.562397
    6    0        -0.812649       -22.1133       4.562397

 
  Pt                   hydrogenic:
 
  List of hydrogenic basis orbitals: 
    n    l      effective z      eigenvalue [eV]  inner max. [A]     outer max. [A]     outer radius [A]   
    4    3         7.400000       -46.5648           1.146169           1.146169           4.506962
    3    2         2.600000        -9.9241           1.779842           1.779842           4.618515
 
 
  O                    hydrogenic:
 
  List of hydrogenic basis orbitals: 
    n    l      effective z      eigenvalue [eV]  inner max. [A]     outer max. [A]     outer radius [A]   
    2    1         1.800000       -10.9749           1.164242           1.164242           4.578029
    3    2         7.600000       -87.3180           0.624125           0.624125           3.251020
    3    0         6.400000       -61.9207           0.061167           1.081902           4.001998
 
  Creating atomic-like basis functions for current effective potential.

  Species Pt                  :

  List of atomic basis orbitals and eigenvalues:
    n    l      energy [Ha]    energy [eV]    outer radius [A]
    1    0     -3153.099128    -85800.1927       0.122365
    2    0      -515.585619    -14029.7985       0.321431
    3    0      -119.497959     -3251.7049       0.669333
    4    0       -25.565949      -695.6849       1.393787
    5    0        -3.732860      -101.5763       3.402290
    6    0        -0.202680        -5.5152       4.562397
    2    1      -445.949326    -12134.8986       0.333438
    3    1       -99.652350     -2711.6784       0.720273
    4    1       -19.101055      -519.7661       1.575030
    5    1        -2.050716       -55.8028       4.087050
    3    2       -78.240654     -2129.0365       0.765673
    4    2       -11.272849      -306.7498       1.915300
    5    2        -0.221200        -6.0192       4.506962
    4    3        -2.577894       -70.1481       3.402290


  Species O                   :

  List of atomic basis orbitals and eigenvalues:
    n    l      energy [Ha]    energy [eV]    outer radius [A]
    1    0       -18.926989      -515.0296       1.415765
    2    0        -0.880247       -23.9527       4.413171
    2    1        -0.331514        -9.0210       4.522403

  Assembling full basis from fixed parts.
  | Species Pt :   atomic orbital   1 s accepted.
  | Species Pt :   atomic orbital   2 s accepted.
  | Species Pt :   atomic orbital   3 s accepted.
  | Species Pt :   atomic orbital   4 s accepted.
  | Species Pt :   atomic orbital   5 s accepted.
  | Species Pt :   atomic orbital   6 s accepted.
  | Species Pt :    ionic orbital   6 s accepted.
  | Species Pt :   atomic orbital   2 p accepted.
  | Species Pt :   atomic orbital   3 p accepted.
  | Species Pt :   atomic orbital   4 p accepted.
  | Species Pt :   atomic orbital   5 p accepted.
  | Species Pt :    ionic orbital   6 p accepted.
  | Species Pt :   atomic orbital   3 d accepted.
  | Species Pt :   atomic orbital   4 d accepted.
  | Species Pt :   atomic orbital   5 d accepted.
  | Species Pt :    hydro orbital   3 d accepted.
  | Species Pt :   atomic orbital   4 f accepted.
  | Species Pt :    hydro orbital   4 f accepted.
  | Species O :   atomic orbital   1 s accepted.
  | Species O :    hydro orbital   3 s accepted.
  | Species O :   atomic orbital   2 s accepted.
  | Species O :   atomic orbital   2 p accepted.
  | Species O :    hydro orbital   2 p accepted.
  | Species O :    hydro orbital   3 d accepted.
 
  Basis size parameters after reduction:
  | Total number of radial functions:       24
  | Total number of basis functions :      140
 
  Per-task memory consumption for arrays in subroutine allocate_ext:
  |           9.140848MB.
  Testing on-site integration grid accuracy.
  |  Species  Function  <phi|h_atom|phi> (log., in eV)  <phi|h_atom|phi> (rad., in eV)
           1        1             -85800.1927430741             -85799.8488530887 ***
           1        2             -14029.7985141093             -14029.7919754462
           1        3              -3251.7049213582              -3251.7045800048
           1        4               -695.6848560016               -695.6848304306
           1        5               -101.5762915836               -101.5762888810
           1        6                 -5.5240480860                 -5.5271251387
           1        7                  6.6025004501                  6.5645021630 ***
           1        8             -12134.8985829961             -12134.8985814838
           1        9              -2711.6784185979              -2711.6784119706
           1       10               -519.7661471610               -519.7661411428
           1       11                -55.8028188823                -55.8028174382
           1       12                  0.7406633387                  0.7376657585
           1       13              -2129.0365177978              -2129.0365151313
           1       14               -306.7498264777               -306.7498229758
           1       15                 -6.0197227729                 -6.0199120643
           1       16                  7.2063060013                  7.1819750069
           1       17                -70.1480733271                -70.1480725137
           1       18                 21.3061252265                 21.3060942854
           2       19               -515.0295626295               -515.0294562738
           2       20                 15.1698434419                 15.1699322204
           2       21                -21.6038822678                -21.6039118105
           2       22                 -9.0211123393                 -9.0212703513
           2       23                  8.3047696391                  8.2854840999
           2       24                 45.8428042125                 45.8427461222
 * Note: Onsite integrals marked "***" above are less accurate than
 * onsite_accuracy_threshold =    0.03000 eV. Usually, this is harmless.
 * However, one integral did have a negative value. This integral could be important.
 * When in doubt, tighten the "radial" and/or "radial_multiplier" flags to check.

  Preparing densities etc. for the partition functions (integrals / Hartree potential).

  Preparations completed.
  max(cpu_time)          :      0.311 s.
  Wall clock time (cpu1) :      0.311 s.
------------------------------------------------------------

  Initializing index lists of integration centers etc. from given atomic structure:
  Mapping all atomic coordinates to central unit cell.

  Initializing the k-points
  Using symmetry for reducing the k-points
  | k-points reduced from:     2197 to     1099
  | Number of k-points                             :      1099
  The eigenvectors in the calculations are COMPLEX.
  | K-points in task   0:      1099
  | Number of basis functions in the Hamiltonian integrals :      2762
  | Number of basis functions in a single unit cell        :       140
  | Number of centers in hartree potential         :       977
  | Number of centers in hartree multipole         :       545
  | Number of centers in electron density summation:       392
  | Number of centers in basis integrals           :       419
  | Number of centers in integrals                 :       174
  | Number of centers in hamiltonian               :       392
  | Consuming       2369 KiB for k_phase.
  | Number of super-cells (origin) [n_cells]                     :         847
  | Number of super-cells (after PM_index) [n_cells]             :         138
  | Number of super-cells in hamiltonian [n_cells_in_hamiltonian]:         138
  | Size of matrix packed + index [n_hamiltonian_matrix_size] :      286039

------------------------------------------------------------
          Begin self-consistency loop: Initialization.

          Date     :  20241129, Time     :  002700.706
------------------------------------------------------------
  | Estimated reciprocal-space cutoff momentum G_max:         2.81535714 bohr^-1 .
  | Reciprocal lattice points for long-range Hartree potential:     140
  Partitioning the integration grid into batches with parallel hashing+maxmin method.
  | Number of batches:      512
  | Maximal batch size:      64
  | Minimal batch size:      59
  | Average batch size:      61.078
  | Standard deviation of batch sizes:       1.438

  Integration load balanced across     1 MPI tasks.
  Work distribution over tasks is as follows:
  Task     0 has      31272 integration points.
  Initializing partition tables, free-atom densities, potentials, etc. across the integration grid (initialize_grid_storage).
  | initialize_grid_storage: Actual outermost partition radius vs. multipole_radius_free
  | (-- VB: in principle, multipole_radius_free should be larger, hence this output)
  | Species        1: Confinement radius =              4.999999999999999 AA, multipole_radius_free =              5.031147476913517 AA.
  | Species        1: outer_partition_radius set to              5.031147476913517 AA .
  | Species        2: Confinement radius =              4.999999999999999 AA, multipole_radius_free =              5.048384829883283 AA.
  | Species        2: outer_partition_radius set to              5.048384829883283 AA .
  | The sparse table of interatomic distances needs        810.58 kbyte instead of      1404.49 kbyte of memory.
  | Net number of integration points:    31272
  | of which are non-zero points    :    26720
  | Numerical average free-atom electrostatic potential    :    -22.90899614 eV
  Renormalizing the initial density to the exact electron count on the 3D integration grid.
  | Initial density: Formal number of electrons (from input files) :     172.0000000000
  | Integrated number of electrons on 3D grid     :     171.9975625186
  | Charge integration error                      :      -0.0024374814
  | Normalization factor for density and gradient :       1.0000141716
  Renormalizing the free-atom superposition density to the exact electron count on the 3D integration grid.
  | Formal number of electrons (from input files) :     172.0000000000
  | Integrated number of electrons on 3D grid     :     171.9975625186
  | Charge integration error                      :      -0.0024374814
  | Normalization factor for density and gradient :       1.0000141716
  Obtaining max. number of non-zero basis functions in each batch (get_n_compute_maxes).
  | Maximal number of non-zero basis functions:      918 in task     0
  Allocating      258.249 MB for KS_eigenvector_complex
  Integrating Hamiltonian matrix: batch-based integration.
  Time summed over all CPUs for integration: real work        3.262 s, elapsed        3.262 s
  Integrating overlap matrix.
  Time summed over all CPUs for integration: real work        2.314 s, elapsed        2.314 s
  Decreasing sparse matrix size:
  | Tolerance:  0.1000E-12
  Hamiltonian matrix
  | Array has   203869 nonzero elements out of   286039 elements
  | Sparsity factor is 0.287
  Overlap matrix
  | Array has   192548 nonzero elements out of   286039 elements
  | Sparsity factor is 0.327
  New size of hamiltonian matrix:      206573

  Updating Kohn-Sham eigenvalues and eigenvectors using ELSI and the (modified) LAPACK eigensolver.
  Singularity check in k-point 1, task 0 (analysis for other k-points/tasks may follow below):
  Overlap matrix is not singular
  | Lowest and highest eigenvalues :  0.1387E-02,  0.7719E+01
  Finished singularity check of overlap matrix
  | Time :     0.002 s
  Starting LAPACK eigensolver
  Finished Cholesky decomposition
  | Time :     0.002 s
  Finished transformation to standard eigenproblem
  | Time :     0.001 s
  Finished solving standard eigenproblem
  | Time :     0.003 s
  Finished back-transformation of eigenvectors
  | Time :     0.001 s

  Obtaining occupation numbers and electronic chemical potential using ELSI.
  | Note that, for insulating systems, the printed 'chemical potential' value is not uniquely defined.
  | It can be anywhere in the energy gap, as long as it correctly separates occupied and unoccupied states.
  | In systems with a gap, the physically relevant chemical potential is the VBM or HOMO.

  | Chemical potential (Fermi level):    -3.99547677 eV
  Writing Kohn-Sham eigenvalues.
  K-point:       1 at    0.000000    0.000000    0.000000 (in units of recip. lattice)

  State    Occupation    Eigenvalue [Ha]    Eigenvalue [eV]
      1       2.00000       -3153.084073       -85799.78307
      2       2.00000       -3153.084073       -85799.78307
      3       2.00000        -515.587333       -14029.84517
      4       2.00000        -515.587333       -14029.84517
      5       2.00000        -445.953584       -12135.01445
      6       2.00000        -445.953584       -12135.01445
      7       2.00000        -445.953580       -12135.01433
      8       2.00000        -445.953580       -12135.01433
      9       2.00000        -445.953573       -12135.01415
     10       2.00000        -445.953573       -12135.01415
     11       2.00000        -119.501693        -3251.80652
     12       2.00000        -119.501693        -3251.80652
     13       2.00000         -99.656697        -2711.79670
     14       2.00000         -99.656697        -2711.79670
     15       2.00000         -99.656662        -2711.79576
     16       2.00000         -99.656662        -2711.79576
     17       2.00000         -99.656608        -2711.79427
     18       2.00000         -99.656608        -2711.79427
     19       2.00000         -78.244947        -2129.15333
     20       2.00000         -78.244947        -2129.15333
     21       2.00000         -78.244945        -2129.15330
     22       2.00000         -78.244945        -2129.15330
     23       2.00000         -78.244912        -2129.15239
     24       2.00000         -78.244912        -2129.15239
     25       2.00000         -78.244892        -2129.15184
     26       2.00000         -78.244892        -2129.15184
     27       2.00000         -78.244886        -2129.15168
     28       2.00000         -78.244886        -2129.15168
     29       2.00000         -25.570592         -695.81121
     30       2.00000         -25.570592         -695.81121
     31       2.00000         -19.106183         -519.90570
     32       2.00000         -19.106183         -519.90570
     33       2.00000         -19.105981         -519.90019
     34       2.00000         -19.105981         -519.90019
     35       2.00000         -19.105657         -519.89139
     36       2.00000         -19.105657         -519.89139
     37       2.00000         -18.973033         -516.28249
     38       2.00000         -18.973033         -516.28249
     39       2.00000         -11.278126         -306.89343
     40       2.00000         -11.278126         -306.89343
     41       2.00000         -11.278083         -306.89224
     42       2.00000         -11.278083         -306.89224
     43       2.00000         -11.277798         -306.88451
     44       2.00000         -11.277798         -306.88451
     45       2.00000         -11.277639         -306.88018
     46       2.00000         -11.277639         -306.88018
     47       2.00000         -11.277614         -306.87950
     48       2.00000         -11.277614         -306.87950
     49       2.00000          -3.741595         -101.81399
     50       2.00000          -3.741548         -101.81269
     51       2.00000          -2.583679          -70.30549
     52       2.00000          -2.583677          -70.30543
     53       2.00000          -2.583632          -70.30420
     54       2.00000          -2.583632          -70.30420
     55       2.00000          -2.583231          -70.29328
     56       2.00000          -2.583226          -70.29316
     57       2.00000          -2.583208          -70.29268
     58       2.00000          -2.583208          -70.29268
     59       2.00000          -2.583105          -70.28986
     60       2.00000          -2.583105          -70.28986
     61       2.00000          -2.582880          -70.28374
     62       2.00000          -2.582880          -70.28373
     63       2.00000          -2.582864          -70.28331
     64       2.00000          -2.582864          -70.28331
     65       2.00000          -2.064643          -56.18179
     66       2.00000          -2.064391          -56.17493
     67       2.00000          -2.064391          -56.17493
     68       2.00000          -2.062624          -56.12685
     69       2.00000          -2.057857          -55.99715
     70       2.00000          -2.057857          -55.99715
     71       2.00000          -1.007989          -27.42877
     72       2.00000          -0.963114          -26.20766
     73       2.00000          -0.564915          -15.37212
     74       2.00000          -0.483297          -13.15119
     75       2.00000          -0.483297          -13.15119
     76       2.00000          -0.415878          -11.31662
     77       2.00000          -0.415878          -11.31662
     78       2.00000          -0.391677          -10.65807
     79       2.00000          -0.346070           -9.41705
     80       2.00000          -0.307354           -8.36353
     81       2.00000          -0.270892           -7.37134
     82       2.00000          -0.214697           -5.84221
     83       2.00000          -0.211056           -5.74312
     84       2.00000          -0.211056           -5.74312
     85       2.00000          -0.200826           -5.46475
     86       2.00000          -0.194458           -5.29148
     87       0.00000          -0.135280           -3.68116
     88       0.00000          -0.090707           -2.46827
     89       0.00000          -0.090707           -2.46827
     90       0.00000          -0.017709           -0.48188
     91       0.00000           0.063513            1.72827
     92       0.00000           0.337960            9.19637
     93       0.00000           0.337960            9.19637
     94       0.00000           0.344463            9.37332
     95       0.00000           0.357637            9.73180
     96       0.00000           0.357637            9.73180
     97       0.00000           0.367995           10.01366
     98       0.00000           0.522629           14.22145
     99       0.00000           0.580487           15.79584
    100       0.00000           0.629977           17.14256
    101       0.00000           0.706885           19.23531
    102       0.00000           0.774610           21.07821
    103       0.00000           0.777868           21.16686
    104       0.00000           0.777868           21.16686
    105       0.00000           0.798664           21.73276
    106       0.00000           0.807451           21.97186
    107       0.00000           0.820106           22.31623
    108       0.00000           0.820106           22.31623
    109       0.00000           0.952377           25.91549
    110       0.00000           0.952377           25.91549

  What follows are estimated values for band gap, HOMO, LUMO, etc.
  | They are estimated on a discrete k-point grid and not necessarily exact.
  | For converged numbers, create a DOS and/or band structure plot on a denser k-grid.

  Highest occupied state (VBM) at     -4.05282459 eV (relative to internal zero)
  | Occupation number:      2.00000000
  | K-point:     788 at    0.461538    0.538462    0.000000 (in units of recip. lattice)

  Lowest unoccupied state (CBM) at    -3.95543483 eV (relative to internal zero)
  | Occupation number:      0.00000001
  | K-point:     472 at    0.307692    0.000000    0.538462 (in units of recip. lattice)

  ESTIMATED overall HOMO-LUMO gap:      0.09738976 eV between HOMO at k-point 788 and LUMO at k-point 472
  | This appears to be an indirect band gap.
  | Smallest direct gap :      0.12844747 eV for k_point 788 at    0.461538    0.538462    0.000000 (in units of recip. lattice)
  However, the gap value is rather small. Since we use a finite k-point grid,
  this material is most likely metallic (in the sense that there are states
  at or near the Fermi level). A DOS and/or band structure plot is required
  for an unambiguous distinction.
  Calculating total energy contributions from superposition of free atom densities.

  Total energy components:
  | Sum of eigenvalues            :      -24023.19673032 Ha     -653704.44314778 eV
  | XC energy correction          :        -736.30523570 Ha      -20035.88487792 eV
  | XC potential correction       :         962.73881397 Ha       26197.45603993 eV
  | Free-atom electrostatic energy:      -14447.44156644 Ha     -393134.88750568 eV
  | Hartree energy correction     :           0.00000000 Ha           0.00000000 eV
  | Entropy correction            :          -0.00000000 Ha          -0.00000000 eV
  | ---------------------------
  | Total energy                  :      -38244.20471849 Ha    -1040677.75949146 eV
  | Total energy, T -> 0          :      -38244.20471849 Ha    -1040677.75949146 eV  <-- do not rely on this value for anything but (periodic) metals
  | Electronic free energy        :      -38244.20471849 Ha    -1040677.75949146 eV

  Derived energy quantities:
  | Kinetic energy                :       42753.36363781 Ha     1163378.21661677 eV
  | Electrostatic energy          :      -80261.26312060 Ha    -2184020.09123030 eV
  | Energy correction for multipole
  | error in Hartree potential    :           0.00000000 Ha           0.00000000 eV
  | Sum of eigenvalues per atom                           :     -163426.11078695 eV
  | Total energy (T->0) per atom                          :     -260169.43987286 eV  <-- do not rely on this value for anything but (periodic) metals
  | Electronic free energy per atom                       :     -260169.43987286 eV
  Initialize hartree_potential_storage
  Max. number of atoms included in rho_multipole:            4

  End scf initialization - timings             :  max(cpu_time)    wall_clock(cpu1)
  | Time for scf. initialization                :       16.651 s          16.653 s
  | Boundary condition initialization           :        0.094 s           0.094 s
  | Integration                                 :        5.581 s           5.580 s
  | Solution of K.-S. eqns.                     :        9.133 s           9.134 s
  | Grid partitioning                           :        0.179 s           0.179 s
  | Preloading free-atom quantities on grid     :        1.588 s           1.589 s
  | Free-atom superposition energy              :        0.162 s           0.162 s
  | Total energy evaluation                     :        0.003 s           0.003 s

  Partial memory accounting:
  | Current value for overall tracked memory usage:
  |   Minimum:      262.190 MB (on task 0)
  |   Maximum:      262.190 MB (on task 0)
  |   Average:      262.190 MB
  | Peak value for overall tracked memory usage:
  |   Minimum:      271.501 MB (on task 0 after allocating wave)
  |   Maximum:      271.501 MB (on task 0 after allocating wave)
  |   Average:      271.501 MB
  | Largest tracked array allocation so far:
  |   Minimum:      258.249 MB (KS_eigenvector_complex on task 0)
  |   Maximum:      258.249 MB (KS_eigenvector_complex on task 0)
  |   Average:      258.249 MB
  Note:  These values currently only include a subset of arrays which are explicitly tracked.
  The "true" memory usage will be greater.
------------------------------------------------------------
  Evaluating new KS density using the density matrix
  Evaluating density matrix
  Time summed over all CPUs for getting density from density matrix: real work        6.077 s, elapsed        6.077 s
  Integration grid: deviation in total charge (<rho> - N_e) =   5.451284E-11

  Time for density update prior                :  max(cpu_time)    wall_clock(cpu1)
  | self-consistency iterative process          :        6.956 s           6.956 s

------------------------------------------------------------
          Begin self-consistency iteration #    1

  Date     :  20241129, Time     :  002724.315
------------------------------------------------------------
  Pulay mixing of updated and previous charge densities.
  Renormalizing the density to the exact electron count on the 3D integration grid.
  | Formal number of electrons (from input files) :     172.0000000000
  | Integrated number of electrons on 3D grid     :     172.0000819666
  | Charge integration error                      :       0.0000819666
  | Normalization factor for density and gradient :       0.9999995235

  Evaluating partitioned Hartree potential by multipole expansion.
  | Original multipole sum: apparent total charge =  -0.123936E-12
  | Sum of charges compensated after spline to logarithmic grids =   0.136655E-06
  | Analytical far-field extrapolation by fixed multipoles:
  | Hartree multipole sum: apparent total charge =  -0.123865E-12
  Summing up the Hartree potential.
  Time summed over all CPUs for potential: real work        1.382 s, elapsed        1.382 s
  | RMS charge density error from multipole expansion :   0.101288E-02
  | Average real-space part of the electrostatic potential :     -0.01024716 eV

  Integrating Hamiltonian matrix: batch-based integration.
  Time summed over all CPUs for integration: real work        3.150 s, elapsed        3.150 s

  Updating Kohn-Sham eigenvalues and eigenvectors using ELSI and the (modified) LAPACK eigensolver.
  Starting LAPACK eigensolver
  Finished Cholesky decomposition
  | Time :     0.001 s
  Finished transformation to standard eigenproblem
  | Time :     0.001 s
  Finished solving standard eigenproblem
  | Time :     0.002 s
  Finished back-transformation of eigenvectors
  | Time :     0.001 s

  Obtaining occupation numbers and electronic chemical potential using ELSI.
  | Note that, for insulating systems, the printed 'chemical potential' value is not uniquely defined.
  | It can be anywhere in the energy gap, as long as it correctly separates occupied and unoccupied states.
  | In systems with a gap, the physically relevant chemical potential is the VBM or HOMO.

  | Chemical potential (Fermi level):    -4.09536804 eV
  Writing Kohn-Sham eigenvalues.
  K-point:       1 at    0.000000    0.000000    0.000000 (in units of recip. lattice)

  State    Occupation    Eigenvalue [Ha]    Eigenvalue [eV]
      1       2.00000       -3153.097340       -85800.14408
      2       2.00000       -3153.097340       -85800.14407
      3       2.00000        -515.600300       -14030.19802
      4       2.00000        -515.600300       -14030.19802
      5       2.00000        -445.966662       -12135.37032
      6       2.00000        -445.966662       -12135.37032
      7       2.00000        -445.966645       -12135.36985
      8       2.00000        -445.966645       -12135.36985
      9       2.00000        -445.966494       -12135.36575
     10       2.00000        -445.966494       -12135.36575
     11       2.00000        -119.513592        -3252.13030
     12       2.00000        -119.513592        -3252.13029
     13       2.00000         -99.668676        -2712.12267
     14       2.00000         -99.668676        -2712.12267
     15       2.00000         -99.668636        -2712.12159
     16       2.00000         -99.668636        -2712.12159
     17       2.00000         -99.668332        -2712.11332
     18       2.00000         -99.668332        -2712.11331
     19       2.00000         -78.257176        -2129.48610
     20       2.00000         -78.257176        -2129.48609
     21       2.00000         -78.257040        -2129.48241
     22       2.00000         -78.257040        -2129.48241
     23       2.00000         -78.256887        -2129.47824
     24       2.00000         -78.256887        -2129.47824
     25       2.00000         -78.256866        -2129.47768
     26       2.00000         -78.256866        -2129.47768
     27       2.00000         -78.256850        -2129.47722
     28       2.00000         -78.256850        -2129.47722
     29       2.00000         -25.581130         -696.09798
     30       2.00000         -25.581130         -696.09798
     31       2.00000         -19.116913         -520.19768
     32       2.00000         -19.116913         -520.19768
     33       2.00000         -19.116631         -520.18998
     34       2.00000         -19.116631         -520.18998
     35       2.00000         -19.115533         -520.16012
     36       2.00000         -19.115533         -520.16012
     37       2.00000         -18.955105         -515.79466
     38       2.00000         -18.955105         -515.79466
     39       2.00000         -11.289139         -307.19309
     40       2.00000         -11.289139         -307.19309
     41       2.00000         -11.288592         -307.17821
     42       2.00000         -11.288592         -307.17821
     43       2.00000         -11.287865         -307.15843
     44       2.00000         -11.287865         -307.15843
     45       2.00000         -11.287648         -307.15254
     46       2.00000         -11.287648         -307.15254
     47       2.00000         -11.287597         -307.15115
     48       2.00000         -11.287597         -307.15115
     49       2.00000          -3.749730         -102.03535
     50       2.00000          -3.749683         -102.03407
     51       2.00000          -2.594413          -70.59758
     52       2.00000          -2.594411          -70.59752
     53       2.00000          -2.594341          -70.59560
     54       2.00000          -2.594340          -70.59560
     55       2.00000          -2.593421          -70.57057
     56       2.00000          -2.593416          -70.57045
     57       2.00000          -2.593065          -70.56088
     58       2.00000          -2.593065          -70.56088
     59       2.00000          -2.592898          -70.55635
     60       2.00000          -2.592898          -70.55635
     61       2.00000          -2.592573          -70.54750
     62       2.00000          -2.592573          -70.54749
     63       2.00000          -2.592547          -70.54680
     64       2.00000          -2.592547          -70.54680
     65       2.00000          -2.072650          -56.39967
     66       2.00000          -2.072650          -56.39966
     67       2.00000          -2.072450          -56.39422
     68       2.00000          -2.070471          -56.34039
     69       2.00000          -2.063565          -56.15246
     70       2.00000          -2.063565          -56.15246
     71       2.00000          -1.001752          -27.25907
     72       2.00000          -0.956072          -26.01603
     73       2.00000          -0.562127          -15.29626
     74       2.00000          -0.479808          -13.05625
     75       2.00000          -0.479808          -13.05625
     76       2.00000          -0.409062          -11.13115
     77       2.00000          -0.409062          -11.13115
     78       2.00000          -0.384635          -10.46646
     79       2.00000          -0.347556           -9.45747
     80       2.00000          -0.309737           -8.42838
     81       2.00000          -0.275327           -7.49204
     82       2.00000          -0.219191           -5.96449
     83       2.00000          -0.215471           -5.86326
     84       2.00000          -0.215471           -5.86326
     85       2.00000          -0.205522           -5.59255
     86       2.00000          -0.198331           -5.39686
     87       0.00000          -0.136474           -3.71364
     88       0.00000          -0.092070           -2.50534
     89       0.00000          -0.092069           -2.50534
     90       0.00000          -0.017156           -0.46684
     91       0.00000           0.065061            1.77039
     92       0.00000           0.338740            9.21759
     93       0.00000           0.338740            9.21759
     94       0.00000           0.343008            9.33373
     95       0.00000           0.356536            9.70185
     96       0.00000           0.356536            9.70185
     97       0.00000           0.367021            9.98716
     98       0.00000           0.520427           14.16155
     99       0.00000           0.580611           15.79923
    100       0.00000           0.628621           17.10564
    101       0.00000           0.706614           19.22794
    102       0.00000           0.773804           21.05627
    103       0.00000           0.777866           21.16681
    104       0.00000           0.777866           21.16681
    105       0.00000           0.797616           21.70424
    106       0.00000           0.806937           21.95788
    107       0.00000           0.818433           22.27071
    108       0.00000           0.818433           22.27071
    109       0.00000           0.951308           25.88642
    110       0.00000           0.951308           25.88642

  What follows are estimated values for band gap, HOMO, LUMO, etc.
  | They are estimated on a discrete k-point grid and not necessarily exact.
  | For converged numbers, create a DOS and/or band structure plot on a denser k-grid.

  Highest occupied state (VBM) at     -4.13100846 eV (relative to internal zero)
  | Occupation number:      1.99999954
  | K-point:     869 at    0.538462    0.538462    0.000000 (in units of recip. lattice)

  Lowest unoccupied state (CBM) at    -4.05980714 eV (relative to internal zero)
  | Occupation number:      0.00000049
  | K-point:     788 at    0.461538    0.538462    0.000000 (in units of recip. lattice)

  ESTIMATED overall HOMO-LUMO gap:      0.07120132 eV between HOMO at k-point 869 and LUMO at k-point 788
  | This appears to be an indirect band gap.
  | Smallest direct gap :      0.07120132 eV for k_point 869 at    0.538462    0.538462    0.000000 (in units of recip. lattice)
  However, the gap value is rather small. Since we use a finite k-point grid,
  this material is most likely metallic (in the sense that there are states
  at or near the Fermi level). A DOS and/or band structure plot is required
  for an unambiguous distinction.

  Total energy components:
  | Sum of eigenvalues            :      -24024.56596380 Ha     -653741.70188660 eV
  | XC energy correction          :        -736.29106781 Ha      -20035.49935019 eV
  | XC potential correction       :         962.71952337 Ha       26196.93111612 eV
  | Free-atom electrostatic energy:      -14447.44156644 Ha     -393134.88750568 eV
  | Hartree energy correction     :           1.39665283 Ha          38.00485729 eV
  | Entropy correction            :          -0.00000000 Ha          -0.00000000 eV
  | ---------------------------
  | Total energy                  :      -38244.18242185 Ha    -1040677.15276906 eV
  | Total energy, T -> 0          :      -38244.18242185 Ha    -1040677.15276906 eV  <-- do not rely on this value for anything but (periodic) metals
  | Electronic free energy        :      -38244.18242185 Ha    -1040677.15276906 eV

  Derived energy quantities:
  | Kinetic energy                :       42752.96928460 Ha     1163367.48571997 eV
  | Electrostatic energy          :      -80260.86063864 Ha    -2184009.13913884 eV
  | Energy correction for multipole
  | error in Hartree potential    :           0.00024839 Ha           0.00675901 eV
  | Sum of eigenvalues per atom                           :     -163435.42547165 eV
  | Total energy (T->0) per atom                          :     -260169.28819227 eV  <-- do not rely on this value for anything but (periodic) metals
  | Electronic free energy per atom                       :     -260169.28819227 eV
  Evaluating new KS density using the density matrix
  Evaluating density matrix
  Time summed over all CPUs for getting density from density matrix: real work        6.035 s, elapsed        6.035 s
  Integration grid: deviation in total charge (<rho> - N_e) =   5.485390E-11

  Self-consistency convergence accuracy:
  | Change of charge density      :  0.5122E+00
  | Change of unmixed KS density  :  0.7332E+03
  | Change of sum of eigenvalues  : -0.3726E+02 eV
  | Change of total energy        :  0.6067E+00 eV


------------------------------------------------------------
  End self-consistency iteration #     1       :  max(cpu_time)    wall_clock(cpu1)
  | Time for this iteration                     :       19.416 s          19.416 s
  | Charge density update                       :        6.967 s           6.966 s
  | Density mixing & preconditioning            :        1.000 s           1.000 s
  | Hartree multipole update                    :        0.003 s           0.003 s
  | Hartree multipole summation                 :        1.395 s           1.395 s
  | Integration                                 :        3.152 s           3.152 s
  | Solution of K.-S. eqns.                     :        6.895 s           6.895 s
  | Total energy evaluation                     :        0.003 s           0.003 s

  Partial memory accounting:
  | Current value for overall tracked memory usage:
  |   Minimum:      262.190 MB (on task 0)
  |   Maximum:      262.190 MB (on task 0)
  |   Average:      262.190 MB
  | Peak value for overall tracked memory usage:
  |   Minimum:      271.501 MB (on task 0 after allocating wave)
  |   Maximum:      271.501 MB (on task 0 after allocating wave)
  |   Average:      271.501 MB
  | Largest tracked array allocation so far:
  |   Minimum:      258.249 MB (KS_eigenvector_complex on task 0)
  |   Maximum:      258.249 MB (KS_eigenvector_complex on task 0)
  |   Average:      258.249 MB
  Note:  These values currently only include a subset of arrays which are explicitly tracked.
  The "true" memory usage will be greater.
------------------------------------------------------------

------------------------------------------------------------
          Begin self-consistency iteration #    2

  Date     :  20241129, Time     :  002743.733
------------------------------------------------------------
  Pulay mixing of updated and previous charge densities.
  Renormalizing the density to the exact electron count on the 3D integration grid.
  | Formal number of electrons (from input files) :     172.0000000000
  | Integrated number of electrons on 3D grid     :     172.0003527244
  | Charge integration error                      :       0.0003527244
  | Normalization factor for density and gradient :       0.9999979493

  Evaluating partitioned Hartree potential by multipole expansion.
  | Original multipole sum: apparent total charge =  -0.223544E-12
  | Sum of charges compensated after spline to logarithmic grids =   0.180923E-05
  | Analytical far-field extrapolation by fixed multipoles:
  | Hartree multipole sum: apparent total charge =  -0.223323E-12
  Summing up the Hartree potential.
  Time summed over all CPUs for potential: real work        1.545 s, elapsed        1.545 s
  | RMS charge density error from multipole expansion :   0.892628E-02
  | Average real-space part of the electrostatic potential :     -0.08474498 eV

  Integrating Hamiltonian matrix: batch-based integration.
  Time summed over all CPUs for integration: real work        3.103 s, elapsed        3.103 s

  Updating Kohn-Sham eigenvalues and eigenvectors using ELSI and the (modified) LAPACK eigensolver.
  Starting LAPACK eigensolver
  Finished Cholesky decomposition
  | Time :     0.000 s
  Finished transformation to standard eigenproblem
  | Time :     0.001 s
  Finished solving standard eigenproblem
  | Time :     0.003 s
  Finished back-transformation of eigenvectors
  | Time :     0.001 s

  Obtaining occupation numbers and electronic chemical potential using ELSI.
  | Note that, for insulating systems, the printed 'chemical potential' value is not uniquely defined.
  | It can be anywhere in the energy gap, as long as it correctly separates occupied and unoccupied states.
  | In systems with a gap, the physically relevant chemical potential is the VBM or HOMO.

  | Chemical potential (Fermi level):    -4.80553404 eV
  What follows are estimated values for band gap, HOMO, LUMO, etc.
  | They are estimated on a discrete k-point grid and not necessarily exact.
  | For converged numbers, create a DOS and/or band structure plot on a denser k-grid.

  Highest occupied state (VBM) at     -4.80827301 eV (relative to internal zero)
  | Occupation number:      1.30150132
  | K-point:     868 at    0.538462    0.461538    0.692308 (in units of recip. lattice)

  Lowest unoccupied state (CBM) at    -4.79771472 eV (relative to internal zero)
  | Occupation number:      0.26880499
  | K-point:     651 at    0.384615    0.384615    0.923077 (in units of recip. lattice)

  ESTIMATED overall HOMO-LUMO gap:      0.01055828 eV between HOMO at k-point 868 and LUMO at k-point 651
  | This appears to be an indirect band gap.
  | Smallest direct gap :      0.07870756 eV for k_point 535 at    0.307692    0.538462    0.000000 (in units of recip. lattice)
  However, this system has fractional occupation numbers. Since we use a finite k-point grid,
  this material is metallic within the approximate finite broadening function (occupation_type)
  applied to determine the occupation numbers.

  Checking to see if s.c.f. parameters should be adjusted.
  Adjusted the Pulay mixing parameter (charge_mix_param) for an expected low-gap system. New value:   0.020000 .
  Adjusted the occupation broadening width for an expected low-gap system. New value:      0.05000000 eV.

  Total energy components:
  | Sum of eigenvalues            :      -24034.61843333 Ha     -654015.24350010 eV
  | XC energy correction          :        -736.19840848 Ha      -20032.97796133 eV
  | XC potential correction       :         962.59196790 Ha       26193.46015511 eV
  | Free-atom electrostatic energy:      -14447.44156644 Ha     -393134.88750568 eV
  | Hartree energy correction     :          11.55823672 Ha         314.51562345 eV
  | Entropy correction            :          -0.00002204 Ha          -0.00059977 eV
  | ---------------------------
  | Total energy                  :      -38244.10820363 Ha    -1040675.13318854 eV
  | Total energy, T -> 0          :      -38244.10822567 Ha    -1040675.13378832 eV  <-- do not rely on this value for anything but (periodic) metals
  | Electronic free energy        :      -38244.10824771 Ha    -1040675.13438809 eV

  Derived energy quantities:
  | Kinetic energy                :       42750.14951426 Ha     1163290.75586491 eV
  | Electrostatic energy          :      -80258.05930941 Ha    -2183932.91109213 eV
  | Energy correction for multipole
  | error in Hartree potential    :           0.00308525 Ha           0.08395400 eV
  | Sum of eigenvalues per atom                           :     -163503.81087502 eV
  | Total energy (T->0) per atom                          :     -260168.78344708 eV  <-- do not rely on this value for anything but (periodic) metals
  | Electronic free energy per atom                       :     -260168.78359702 eV
  Evaluating new KS density using the density matrix
  Evaluating density matrix
  Time summed over all CPUs for getting density from density matrix: real work        6.109 s, elapsed        6.109 s
  Integration grid: deviation in total charge (<rho> - N_e) =   5.485390E-11

  Self-consistency convergence accuracy:
  | Change of charge density      :  0.4598E+00
  | Change of unmixed KS density  :  0.3850E-01
  | Change of sum of eigenvalues  : -0.2735E+03 eV
  | Change of total energy        :  0.2020E+01 eV


------------------------------------------------------------
  End self-consistency iteration #     2       :  max(cpu_time)    wall_clock(cpu1)
  | Time for this iteration                     :       19.550 s          19.549 s
  | Charge density update                       :        6.963 s           6.963 s
  | Density mixing & preconditioning            :        0.997 s           0.996 s
  | Hartree multipole update                    :        0.003 s           0.003 s
  | Hartree multipole summation                 :        1.559 s           1.560 s
  | Integration                                 :        3.104 s           3.104 s
  | Solution of K.-S. eqns.                     :        6.919 s           6.919 s
  | Total energy evaluation                     :        0.003 s           0.003 s

  Partial memory accounting:
  | Current value for overall tracked memory usage:
  |   Minimum:      262.191 MB (on task 0)
  |   Maximum:      262.191 MB (on task 0)
  |   Average:      262.191 MB
  | Peak value for overall tracked memory usage:
  |   Minimum:      271.501 MB (on task 0 after allocating wave)
  |   Maximum:      271.501 MB (on task 0 after allocating wave)
  |   Average:      271.501 MB
  | Largest tracked array allocation so far:
  |   Minimum:      258.249 MB (KS_eigenvector_complex on task 0)
  |   Maximum:      258.249 MB (KS_eigenvector_complex on task 0)
  |   Average:      258.249 MB
  Note:  These values currently only include a subset of arrays which are explicitly tracked.
  The "true" memory usage will be greater.
------------------------------------------------------------

------------------------------------------------------------
          Begin self-consistency iteration #    3

  Date     :  20241129, Time     :  002803.283
------------------------------------------------------------
  Pulay mixing of updated and previous charge densities.
  Renormalizing the density to the exact electron count on the 3D integration grid.
  | Formal number of electrons (from input files) :     172.0000000000
  | Integrated number of electrons on 3D grid     :     171.9988450605
  | Charge integration error                      :      -0.0011549395
  | Normalization factor for density and gradient :       1.0000067148

  Evaluating partitioned Hartree potential by multipole expansion.
  | Original multipole sum: apparent total charge =   0.115068E-12
  | Sum of charges compensated after spline to logarithmic grids =   0.479748E-05
  | Analytical far-field extrapolation by fixed multipoles:
  | Hartree multipole sum: apparent total charge =   0.115007E-12
  Summing up the Hartree potential.
  Time summed over all CPUs for potential: real work        1.528 s, elapsed        1.528 s
  | RMS charge density error from multipole expansion :   0.932049E-02
  | Average real-space part of the electrostatic potential :     -0.06353256 eV

  Integrating Hamiltonian matrix: batch-based integration.
  Time summed over all CPUs for integration: real work        3.204 s, elapsed        3.204 s

  Updating Kohn-Sham eigenvalues and eigenvectors using ELSI and the (modified) LAPACK eigensolver.
  Starting LAPACK eigensolver
  Finished Cholesky decomposition
  | Time :     0.001 s
  Finished transformation to standard eigenproblem
  | Time :     0.001 s
  Finished solving standard eigenproblem
  | Time :     0.003 s
  Finished back-transformation of eigenvectors
  | Time :     0.000 s

  Obtaining occupation numbers and electronic chemical potential using ELSI.
  | Note that, for insulating systems, the printed 'chemical potential' value is not uniquely defined.
  | It can be anywhere in the energy gap, as long as it correctly separates occupied and unoccupied states.
  | In systems with a gap, the physically relevant chemical potential is the VBM or HOMO.

  | Chemical potential (Fermi level):    -4.62235754 eV
  What follows are estimated values for band gap, HOMO, LUMO, etc.
  | They are estimated on a discrete k-point grid and not necessarily exact.
  | For converged numbers, create a DOS and/or band structure plot on a denser k-grid.

  Highest occupied state (VBM) at     -4.62349414 eV (relative to internal zero)
  | Occupation number:      1.02564602
  | K-point:     868 at    0.538462    0.461538    0.692308 (in units of recip. lattice)

  Lowest unoccupied state (CBM) at    -4.61475380 eV (relative to internal zero)
  | Occupation number:      0.82971577
  | K-point:      42 at    0.000000    0.307692    0.538462 (in units of recip. lattice)

  ESTIMATED overall HOMO-LUMO gap:      0.00874034 eV between HOMO at k-point 868 and LUMO at k-point 42
  | This appears to be an indirect band gap.
  | Smallest direct gap :      0.09544781 eV for k_point 796 at    0.461538    0.538462    0.769231 (in units of recip. lattice)
  However, this system has fractional occupation numbers. Since we use a finite k-point grid,
  this material is metallic within the approximate finite broadening function (occupation_type)
  applied to determine the occupation numbers.

  Total energy components:
  | Sum of eigenvalues            :      -24031.49356881 Ha     -653930.21161020 eV
  | XC energy correction          :        -736.23442596 Ha      -20033.95804698 eV
  | XC potential correction       :         962.64103212 Ha       26194.79526056 eV
  | Free-atom electrostatic energy:      -14447.44156644 Ha     -393134.88750568 eV
  | Hartree energy correction     :           8.41920586 Ha         229.09824797 eV
  | Entropy correction            :          -0.00002451 Ha          -0.00066688 eV
  | ---------------------------
  | Total energy                  :      -38244.10932323 Ha    -1040675.16365433 eV
  | Total energy, T -> 0          :      -38244.10934773 Ha    -1040675.16432122 eV  <-- do not rely on this value for anything but (periodic) metals
  | Electronic free energy        :      -38244.10937224 Ha    -1040675.16498810 eV

  Derived energy quantities:
  | Kinetic energy                :       42751.88779929 Ha     1163338.05700731 eV
  | Electrostatic energy          :      -80259.76269655 Ha    -2183979.26261466 eV
  | Energy correction for multipole
  | error in Hartree potential    :           0.00593224 Ha           0.16142457 eV
  | Sum of eigenvalues per atom                           :     -163482.55290255 eV
  | Total energy (T->0) per atom                          :     -260168.79108030 eV  <-- do not rely on this value for anything but (periodic) metals
  | Electronic free energy per atom                       :     -260168.79124702 eV
  Evaluating new KS density using the density matrix
  Evaluating density matrix
  Time summed over all CPUs for getting density from density matrix: real work        6.003 s, elapsed        6.003 s
  Integration grid: deviation in total charge (<rho> - N_e) =   5.448442E-11

  Self-consistency convergence accuracy:
  | Change of charge density      :  0.1601E+00
  | Change of unmixed KS density  :  0.2976E+00
  | Change of sum of eigenvalues  :  0.8503E+02 eV
  | Change of total energy        : -0.3047E-01 eV


------------------------------------------------------------
  End self-consistency iteration #     3       :  max(cpu_time)    wall_clock(cpu1)
  | Time for this iteration                     :       19.569 s          19.569 s
  | Charge density update                       :        6.900 s           6.900 s
  | Density mixing & preconditioning            :        0.994 s           0.994 s
  | Hartree multipole update                    :        0.003 s           0.003 s
  | Hartree multipole summation                 :        1.542 s           1.542 s
  | Integration                                 :        3.205 s           3.205 s
  | Solution of K.-S. eqns.                     :        6.920 s           6.921 s
  | Total energy evaluation                     :        0.003 s           0.003 s

  Partial memory accounting:
  | Current value for overall tracked memory usage:
  |   Minimum:      262.191 MB (on task 0)
  |   Maximum:      262.191 MB (on task 0)
  |   Average:      262.191 MB
  | Peak value for overall tracked memory usage:
  |   Minimum:      271.501 MB (on task 0 after allocating wave)
  |   Maximum:      271.501 MB (on task 0 after allocating wave)
  |   Average:      271.501 MB
  | Largest tracked array allocation so far:
  |   Minimum:      258.249 MB (KS_eigenvector_complex on task 0)
  |   Maximum:      258.249 MB (KS_eigenvector_complex on task 0)
  |   Average:      258.249 MB
[...]
  this material is metallic within the approximate finite broadening function (occupation_type)
  applied to determine the occupation numbers.

  Total energy components:
  | Sum of eigenvalues            :      -24031.88529750 Ha     -653940.87109026 eV
  | XC energy correction          :        -736.25489012 Ha      -20034.51490493 eV
  | XC potential correction       :         962.66615881 Ha       26195.47899252 eV
  | Free-atom electrostatic energy:      -14447.44156644 Ha     -393134.88750568 eV
  | Hartree energy correction     :           8.81025118 Ha         239.73913249 eV
  | Entropy correction            :          -0.00003039 Ha          -0.00082683 eV
  | ---------------------------
  | Total energy                  :      -38244.10534407 Ha    -1040675.05537587 eV
  | Total energy, T -> 0          :      -38244.10537445 Ha    -1040675.05620270 eV  <-- do not rely on this value for anything but (periodic) metals
  | Electronic free energy        :      -38244.10540484 Ha    -1040675.05702953 eV

  Derived energy quantities:
  | Kinetic energy                :       42752.37264382 Ha     1163351.25029839 eV
  | Electrostatic energy          :      -80260.22309777 Ha    -2183991.79076933 eV
  | Energy correction for multipole
  | error in Hartree potential    :           0.01492056 Ha           0.40600905 eV
  | Sum of eigenvalues per atom                           :     -163485.21777257 eV
  | Total energy (T->0) per atom                          :     -260168.76405068 eV  <-- do not rely on this value for anything but (periodic) metals
  | Electronic free energy per atom                       :     -260168.76425738 eV
  Preliminary charge convergence reached. Turning off preconditioner.


  Self-consistency convergence accuracy:
  | Change of charge density      :  0.5622E-05
  | Change of unmixed KS density  :  0.1191E-05
  | Change of sum of eigenvalues  :  0.3608E-03 eV
  | Change of total energy        : -0.5168E-07 eV

  Writing Kohn-Sham eigenvalues.
  K-point:       1 at    0.000000    0.000000    0.000000 (in units of recip. lattice)

  State    Occupation    Eigenvalue [Ha]    Eigenvalue [eV]
      1       2.00000       -3153.154585       -85801.70179
      2       2.00000       -3153.154584       -85801.70178
      3       2.00000        -515.659295       -14031.80335
      4       2.00000        -515.659295       -14031.80335
      5       2.00000        -446.026168       -12136.98954
      6       2.00000        -446.026167       -12136.98954
      7       2.00000        -446.026105       -12136.98784
      8       2.00000        -446.026105       -12136.98784
      9       2.00000        -446.024235       -12136.93695
     10       2.00000        -446.024235       -12136.93695
     11       2.00000        -119.571543        -3253.70724
     12       2.00000        -119.571543        -3253.70724
     13       2.00000         -99.727505        -2713.72349
     14       2.00000         -99.727505        -2713.72348
     15       2.00000         -99.727277        -2713.71729
     16       2.00000         -99.727277        -2713.71728
     17       2.00000         -99.724671        -2713.64636
     18       2.00000         -99.724671        -2713.64635
     19       2.00000         -78.317549        -2131.12895
     20       2.00000         -78.317549        -2131.12894
     21       2.00000         -78.315325        -2131.06842
     22       2.00000         -78.315325        -2131.06842
     23       2.00000         -78.314392        -2131.04303
     24       2.00000         -78.314392        -2131.04302
     25       2.00000         -78.314337        -2131.04154
     26       2.00000         -78.314337        -2131.04154
     27       2.00000         -78.314182        -2131.03732
     28       2.00000         -78.314182        -2131.03731
     29       2.00000         -25.638594         -697.66163
     30       2.00000         -25.638594         -697.66163
     31       2.00000         -19.177272         -521.84013
     32       2.00000         -19.177272         -521.84012
     33       2.00000         -19.176777         -521.82664
     34       2.00000         -19.176777         -521.82664
     35       2.00000         -19.167357         -521.57033
     36       2.00000         -19.167357         -521.57033
     37       2.00000         -18.876137         -513.64582
     38       2.00000         -18.876137         -513.64582
     39       2.00000         -11.355197         -308.99064
     40       2.00000         -11.355197         -308.99064
     41       2.00000         -11.346977         -308.76694
     42       2.00000         -11.346976         -308.76694
     43       2.00000         -11.342186         -308.63659
     44       2.00000         -11.342186         -308.63658
     45       2.00000         -11.342097         -308.63416
     46       2.00000         -11.342097         -308.63416
     47       2.00000         -11.341711         -308.62366
     48       2.00000         -11.341711         -308.62366
     49       2.00000          -3.803572         -103.50045
     50       2.00000          -3.803529         -103.49928
     51       2.00000          -2.658782          -72.34914
     52       2.00000          -2.658780          -72.34909
     53       2.00000          -2.658577          -72.34356
     54       2.00000          -2.658577          -72.34356
     55       2.00000          -2.651999          -72.16457
     56       2.00000          -2.651995          -72.16445
     57       2.00000          -2.646624          -72.01831
     58       2.00000          -2.646624          -72.01831
     59       2.00000          -2.646493          -72.01473
     60       2.00000          -2.646493          -72.01473
     61       2.00000          -2.645617          -71.99090
     62       2.00000          -2.645617          -71.99090
     63       2.00000          -2.645611          -71.99073
     64       2.00000          -2.645610          -71.99071
     65       2.00000          -2.132590          -58.03072
     66       2.00000          -2.132590          -58.03072
     67       2.00000          -2.128606          -57.92233
     68       2.00000          -2.126905          -57.87602
     69       2.00000          -2.094987          -57.00749
     70       2.00000          -2.094987          -57.00749
     71       2.00000          -0.962030          -26.17817
     72       2.00000          -0.910360          -24.77217
     73       2.00000          -0.549232          -14.94537
     74       2.00000          -0.465645          -12.67085
     75       2.00000          -0.465645          -12.67085
     76       2.00000          -0.366314           -9.96791
     77       2.00000          -0.366314           -9.96791
     78       2.00000          -0.357623           -9.73142
     79       2.00000          -0.341263           -9.28623
     80       2.00000          -0.323479           -8.80232
     81       2.00000          -0.306511           -8.34060
     82       2.00000          -0.249165           -6.78013
     83       2.00000          -0.245263           -6.67396
     84       2.00000          -0.245263           -6.67396
     85       2.00000          -0.236758           -6.44252
     86       2.00000          -0.226864           -6.17329
     87       0.00000          -0.142280           -3.87163
     88       0.00000          -0.100550           -2.73610
     89       0.00000          -0.100550           -2.73610
     90       0.00000          -0.010174           -0.27684
     91       0.00000           0.075895            2.06521
     92       0.00000           0.337688            9.18897
     93       0.00000           0.345095            9.39052
     94       0.00000           0.345095            9.39052
     95       0.00000           0.350412            9.53521
     96       0.00000           0.350412            9.53521
     97       0.00000           0.359814            9.79104
     98       0.00000           0.507774           13.81724
     99       0.00000           0.583740           15.88437
    100       0.00000           0.624114           16.98301
    101       0.00000           0.704532           19.17128
    102       0.00000           0.771072           20.98193
    103       0.00000           0.780063           21.22659
    104       0.00000           0.780063           21.22659
    105       0.00000           0.793692           21.59746
    106       0.00000           0.803742           21.87092
    107       0.00000           0.807444           21.97167
    108       0.00000           0.807444           21.97167
    109       0.00000           0.942495           25.64661
    110       0.00000           0.942496           25.64661

  What follows are estimated values for band gap, HOMO, LUMO, etc.
  | They are estimated on a discrete k-point grid and not necessarily exact.
  | For converged numbers, create a DOS and/or band structure plot on a denser k-grid.

  Highest occupied state (VBM) at     -4.71307615 eV (relative to internal zero)
  | Occupation number:      1.05328867
  | K-point:     868 at    0.538462    0.461538    0.692308 (in units of recip. lattice)

  Lowest unoccupied state (CBM) at    -4.70358323 eV (relative to internal zero)
  | Occupation number:      0.84017994
  | K-point:     788 at    0.461538    0.538462    0.000000 (in units of recip. lattice)

  ESTIMATED overall HOMO-LUMO gap:      0.00949293 eV between HOMO at k-point 868 and LUMO at k-point 788
  | This appears to be an indirect band gap.
  | Smallest direct gap :      0.08787520 eV for k_point 868 at    0.538462    0.461538    0.692308 (in units of recip. lattice)
  However, this system has fractional occupation numbers. Since we use a finite k-point grid,
  this material is metallic within the approximate finite broadening function (occupation_type)
  applied to determine the occupation numbers.

  | Chemical Potential                          :    -4.71071310 eV
  | Note that, for insulating systems, the printed 'chemical potential' value is not uniquely defined.
  | It can be anywhere in the energy gap, as long as it correctly separates occupied and unoccupied states.
  | In systems with a gap, the physically relevant chemical potential is the VBM or HOMO.

  Self-consistency cycle converged.


------------------------------------------------------------
  End self-consistency iteration #    19       :  max(cpu_time)    wall_clock(cpu1)
  | Time for this iteration                     :       12.505 s          12.505 s
  | Charge density update                       :        0.000 s           0.000 s
  | Density mixing                              :        0.994 s           0.994 s
  | Hartree multipole update                    :        0.003 s           0.003 s
  | Hartree multipole summation                 :        1.587 s           1.586 s
  | Integration                                 :        3.164 s           3.164 s
  | Solution of K.-S. eqns.                     :        6.752 s           6.752 s
  | Total energy evaluation                     :        0.003 s           0.003 s

  Partial memory accounting:
  | Current value for overall tracked memory usage:
  |   Minimum:      262.191 MB (on task 0)
  |   Maximum:      262.191 MB (on task 0)
  |   Average:      262.191 MB
  | Peak value for overall tracked memory usage:
  |   Minimum:      271.501 MB (on task 0 after allocating wave)
  |   Maximum:      271.501 MB (on task 0 after allocating wave)
  |   Average:      271.501 MB
  | Largest tracked array allocation so far:
  |   Minimum:      258.249 MB (KS_eigenvector_complex on task 0)
  |   Maximum:      258.249 MB (KS_eigenvector_complex on task 0)
  |   Average:      258.249 MB
  Note:  These values currently only include a subset of arrays which are explicitly tracked.
  The "true" memory usage will be greater.
------------------------------------------------------------

  Energy and forces in a compact form:
  | Total energy uncorrected      :         -0.104067505537587E+07 eV
  | Total energy corrected        :         -0.104067505620270E+07 eV  <-- do not rely on this value for anything but (periodic) metals
  | Electronic free energy        :         -0.104067505702953E+07 eV

  ------------------------------------ 
  Start decomposition of the XC Energy 
  ------------------------------------ 
  X and C from original XC functional choice 
  Hartree-Fock Energy :          0.000000000 Ha              0.000000000 eV
  X Energy            :       -726.108538836 Ha         -19758.418639004 eV
  C Energy            :        -10.146351279 Ha           -276.096265927 eV
  XC Energy w/o HF    :       -736.254890115 Ha         -20034.514904930 eV
  Total XC Energy     :       -736.254890115 Ha         -20034.514904930 eV
  ------------------------------------ 
  LDA X and C from self-consistent density 
  X Energy LDA        :       -696.202779740 Ha         -18944.641529468 eV
  C Energy LDA        :        -17.442864529 Ha           -474.644493471 eV
  ------------------------------------ 
  End decomposition of the XC Energy 
  ------------------------------------ 

------------------------------------------------------------

------------------------------------------------------------------------------
  Final output of selected total energy values:

  The following output summarizes some interesting total energy values
  at the end of a run (AFTER all relaxation, molecular dynamics, etc.).

  | Total energy of the DFT / Hartree-Fock s.c.f. calculation      :       -1040675.055375871 eV
  | Final zero-broadening corrected energy (caution - metals only) :       -1040675.056202701 eV
  | For reference only, the value of 1 Hartree used in FHI-aims is :             27.211384500 eV
  | For reference only, the overall average (free atom contribution
  | + realspace contribution) of the electrostatic potential after
  | s.c.f. convergence is                                          :            -22.938828809 eV

  Before relying on these values, please be sure to understand exactly which
  total energy value is referred to by a given number. Different objects may
  all carry the same name 'total energy'. Definitions:

  Total energy of the DFT / Hartree-Fock s.c.f. calculation:
  | Note that this energy does not include ANY quantities calculated after the
  | s.c.f. cycle, in particular not ANY RPA, MP2, etc. many-body perturbation terms.

  Final zero-broadening corrected energy:
  | For metallic systems only, a broadening of the occupation numbers at the Fermi
  | level can be extrapolated back to zero broadening by an electron-gas inspired
  | formula. For all systems that are not real metals, this value can be
  | meaningless and should be avoided.

------------------------------------------------------------------------------
  Methods described in the following list of references were used in this FHI-aims run.
  If you publish the results, please make sure to cite these reference if they apply.
  FHI-aims is an academic code, and for our developers (often, Ph.D. students
  and postdocs), scientific credit in the community is essential.
  Thank you for helping us!

  For any use of FHI-aims, please cite:

    Volker Blum, Ralf Gehrke, Felix Hanke, Paula Havu, Ville Havu,
    Xinguo Ren, Karsten Reuter, and Matthias Scheffler
    'Ab initio molecular simulations with numeric atom-centered orbitals'
    Computer Physics Communications 180, 2175-2196 (2009)
    http://doi.org/10.1016/j.cpc.2009.06.022


  The provided symmetry information was generated with SPGlib:

    Atsushi Togo, Yusuke Seto, Dimitar Pashov
    SPGlib 1.7.3 obtained from http://spglib.sourceforge.net
    Copyright (C) 2008 Atsushi Togo


  The ELSI infrastructure was used in your run to solve the Kohn-Sham electronic structure.
  Please check out http://elsi-interchange.org to learn more.
  If scalability is important for your project, please acknowledge ELSI by citing:

    V. W-z. Yu, F. Corsetti, A. Garcia, W. P. Huhn, M. Jacquelin, W. Jia,
    B. Lange, L. Lin, J. Lu, W. Mi, A. Seifitokaldani, A. Vazquez-Mayagoitia,
    C. Yang, H. Yang, and V. Blum
    'ELSI: A unified software interface for Kohn-Sham electronic structure solvers'
    Computer Physics Communications 222, 267-285 (2018).
    http://doi.org/10.1016/j.cpc.2017.09.007


  For the real-space grid partitioning and parallelization used in this calculation, please cite:

    Ville Havu, Volker Blum, Paula Havu, and Matthias Scheffler,
    'Efficient O(N) integration for all-electron electronic structure calculation'
    'using numerically tabulated basis functions'
    Journal of Computational Physics 228, 8367-8379 (2009).
    http://doi.org/10.1016/j.jcp.2009.08.008

  Of course, there are many other important community references, e.g., those cited in the
  above references. Our list is limited to references that describe implementations in the
  FHI-aims code. The reason is purely practical (length of this list) - please credit others as well.

 * A warning was issued further up regarding the accuracy of onsite integrals.
   An integral with a negative eigenvalue was among the flagged integrals.
   In most standard situations, this warning is probably harmless.
   If needed, this can be verified by adjusting the radial_multiplier flag.

------------------------------------------------------------
          Leaving FHI-aims.
          Date     :  20241129, Time     :  003329.243

          Computational steps:
          | Number of self-consistency cycles          :           19
          | Number of SCF (re)initializations          :            1

          Detailed time accounting                     :  max(cpu_time)    wall_clock(cpu1)
          | Total time                                  :      388.959 s         388.974 s
          | Preparation time                            :        0.311 s           0.311 s
          | Boundary condition initalization            :        0.094 s           0.094 s
          | Grid partitioning                           :        0.179 s           0.179 s
          | Preloading free-atom quantities on grid     :        1.588 s           1.589 s
          | Free-atom superposition energy              :        0.162 s           0.162 s
          | Total time for integrations                 :       65.520 s          65.519 s
          | Total time for solution of K.-S. equations  :      140.416 s         140.414 s
          | Total time for density update               :      131.842 s         131.841 s
          | Total time for mixing & preconditioning     :       18.903 s          18.901 s
          | Total time for Hartree multipole update     :        0.058 s           0.058 s
          | Total time for Hartree multipole sum        :       29.750 s          29.752 s
          | Total time for total energy evaluation      :        0.061 s           0.062 s
          | Total time for scaled ZORA corrections      :        0.000 s           0.000 s

          Partial memory accounting:
          | Residual value for overall tracked memory usage across tasks:     0.000000 MB (should be 0.000000 MB)
          | Peak values for overall tracked memory usage:
          |   Minimum:      271.501 MB (on task 0 after allocating wave)
          |   Maximum:      271.501 MB (on task 0 after allocating wave)
          |   Average:      271.501 MB
          | Largest tracked array allocation:
          |   Minimum:      258.249 MB (KS_eigenvector_complex on task 0)
          |   Maximum:      258.249 MB (KS_eigenvector_complex on task 0)
          |   Average:      258.249 MB
          Note:  These values currently only include a subset of arrays which are explicitly tracked.
          The "true" memory usage will be greater.

          Have a nice day.
------------------------------------------------------------
