------------------------------------------------------------
          Invoking FHI-aims ...

          When using FHI-aims, please cite the following reference:

            Volker Blum, Ralf Gehrke, Felix Hanke, Paula Havu,
            Ville Havu, Xinguo Ren, Karsten Reuter, and Matthias Scheffler,
            'Ab Initio Molecular Simulations with Numeric Atom-Centered Orbitals',
            Computer Physics Communications 180, 2175-2196 (2009)

          In addition, many other developments in FHI-aims are likely important for
          your particular application. A partial list of references is given at the end of
          this file. Thank you for giving credit to the authors of these developments.

          For any questions about FHI-aims, please visit our slack channel at

            https://fhi-aims.slack.com

          and our main development and support site at

            https://aims-git.rz-berlin.mpg.de .

          The latter site, in particular, has a wiki to collect information, as well
          as an issue tracker to log discussions, suggest improvements, and report issues
          or bugs. https://aims-git.rz-berlin.mpg.de is also the main development site
          of the project and all new and updated code versions can be obtained there.
          Please send an email to aims-coordinators@fhi-berlin.mpg.de and we will add
          you to these sites. They are for you and everyone is welcome there.

------------------------------------------------------------



  Date     :  20241202, Time     :  150847.124
  Time zero on CPU 1             :   0.267542000000000E+00  s.
  Internal wall clock time zero  :           502384127.124  s.

  FHI-aims created a unique identifier for this run for later identification
  aims_uuid : ECCD02F9-4DC3-4A10-A5ED-CA8766DE6C0E

  Build configuration of the current instance of FHI-aims
  -------------------------------------------------------
  FHI-aims version      : 221103
  Commit number         : GITDIR-NOTFOUND
  CMake host system     : Linux-3.10.0-1160.59.1.el7.x86_64
  CMake version         : 3.17.5
  Fortran compiler      : /home/spack/spack/opt/spack/linux-centos7-broadwell/gcc-8.2.0/intel-oneapi-mpi-2021.13.1-tc3o22m5brhwlepjze7ymovtbug6ollk/mpi/2021.13/bin/mpiifort (Intel) version 20.2.8.20221119
  Fortran compiler flags: -O3 -ip -fp-model precise
  C compiler            : /home/spack/spack/opt/spack/linux-centos7-broadwell/gcc-8.2.0/intel-oneapi-compilers-2023.0.0-qdtyksft5ugoazragh7yusjezd4gp7hm/compiler/2023.0.0/linux/bin/intel64/icc (Intel) version 20.2.8.20221119
  C compiler flags      : -O3 -ip -fp-model precise -std=gnu99
  HIP compiler          :
  HIP compiler flags    :
  HIP GPU arch          :
  Using MPI
  Using ScaLAPACK
  Using LibXC
  Using i-PI
  Using RLSY
  Linking against: /home/spack/spack/opt/spack/linux-centos7-broadwell/gcc-8.2.0/intel-oneapi-mkl-2024.2.1-2ept5lpbp5bastej6jsrfm45y5ab2lpn/mkl/latest/lib/intel64/libmkl_intel_lp64.so
                   /home/spack/spack/opt/spack/linux-centos7-broadwell/gcc-8.2.0/intel-oneapi-mkl-2024.2.1-2ept5lpbp5bastej6jsrfm45y5ab2lpn/mkl/latest/lib/intel64/libmkl_sequential.so
                   /home/spack/spack/opt/spack/linux-centos7-broadwell/gcc-8.2.0/intel-oneapi-mkl-2024.2.1-2ept5lpbp5bastej6jsrfm45y5ab2lpn/mkl/latest/lib/intel64/libmkl_core.so
                   /home/spack/spack/opt/spack/linux-centos7-broadwell/gcc-8.2.0/intel-oneapi-mkl-2024.2.1-2ept5lpbp5bastej6jsrfm45y5ab2lpn/mkl/latest/lib/intel64/libmkl_blacs_intelmpi_lp64.so
                   /home/spack/spack/opt/spack/linux-centos7-broadwell/gcc-8.2.0/intel-oneapi-mkl-2024.2.1-2ept5lpbp5bastej6jsrfm45y5ab2lpn/mkl/latest/lib/intel64/libmkl_scalapack_lp64.so

  Using        8 parallel tasks.
  Task        0 on host f020 reporting.
  Task        1 on host f020 reporting.
  Task        2 on host f020 reporting.
  Task        3 on host f020 reporting.
  Task        4 on host f020 reporting.
  Task        5 on host f020 reporting.
  Task        6 on host f020 reporting.
  Task        7 on host f020 reporting.

  Performing system and environment tests:
  | Environment variable OMP_NUM_THREADS correctly set to 1.
  | Checking for ScaLAPACK...
  | Testing pdtran()...
  | All pdtran() tests passed.

  Obtaining array dimensions for all initial allocations:
  
  -----------------------------------------------------------------------
  Parsing control.in (first pass over file, find array dimensions only).
  The contents of control.in will be repeated verbatim below
  unless switched off by setting 'verbatim_writeout .false.' .
  in the first line of control.in .
  -----------------------------------------------------------------------
  
  xc		hse06 0.11
  hse_unit        A
  spin		none
  relativistic	atomic_zora scalar
  charge		0.
  k_grid 		14 14 14
  KS_method parallel
  exx_band_structure_version 1
  
  output band 0.0 0.0 0.0 0.0 0.5 0.0 31 Gamma X
  output band 0.0 0.5 0.0 0.5 0.5 0.0 31 X M
  output band 0.5 0.5 0.0 0.0 0.0 0.0 31 M Gamma
  output band 0.0 0.0 0.0 0.0 0.0 0.5 31 Gamma Z
  output band 0.0 0.0 0.5 0.0 0.5 0.5 31 Z R
  output band 0.0 0.5 0.5 0.5 0.5 0.5 31 R A
  output band 0.5 0.5 0.5 0.0 0.0 0.5 31 A Z
  output band 0.0 0.0 0.5 0.5 0.5 0.5 31 Z A
  output band 0.5 0.5 0.5 0.5 0.5 0.0 31 A M
  
  output dos_tetrahedron -18. 0. 2000.
  ################################################################################
  #
  #  FHI-aims code project
  #  VB, Fritz-Haber Institut, 2009
  #
  #  Suggested "light" defaults for Pt atom (to be pasted into control.in file)
  #  Be sure to double-check any results obtained with these settings for post-processing,
  #  e.g., with the "tight" defaults and larger basis sets.
  #
  ################################################################################
    species        Pt
  #     global species definitions
      nucleus             78
      mass                195.084
  #
      l_hartree           4
  #
      cut_pot             3.5  1.5  1.0
      basis_dep_cutoff    1e-4
  #
      radial_base         72 5.0
      radial_multiplier   1
      angular_grids specified
        division   0.4222   50
        division   0.9557  110
        division   1.2477  194
        division   1.5393  302
  #      division   1.9382  434
  #      division   2.0887  590
  #      division   2.1534  770
  #      division   2.2208  974
  #      division   2.6985 1202
  #      outer_grid    974
        outer_grid    302
  ################################################################################
  #
  #  Definition of "minimal" basis
  #
  ################################################################################
  #     valence basis states
      valence      6  s   1.
      valence      5  p   6.
      valence      5  d   9.
      valence      4  f  14.
  #     ion occupancy
      ion_occ     6  s   0.
      ion_occ     5  p   6.
      ion_occ     5  d   8.
      ion_occ     4  f   14.
  ################################################################################
  #
  #  Suggested additional basis functions. For production calculations,
  #  uncomment them one after another (the most important basis functions are
  #  listed first).
  #
  #  Constructed for dimers: 2.00, 2.275, 2.75, 3.75 AA
  #
  ################################################################################
  #  "First tier" - max. impr. -193.66  meV, min. impr. -18.25 meV
       hydro 4 f 7.4
       ionic 6 p auto
  #     hydro 5 g 9.8
       ionic 6 s auto
       hydro 3 d 2.6
  #  "Second tier" - max. impr. -10.25  meV, min. impr. -0.56 meV
  #     hydro 6 h 14
  #     hydro 5 f 14
  #     hydro 4 d 4
  #     hydro 3 p 3.3
  #     hydro 5 g 16.4
  #     hydro 1 s 0.5
  #  "Third tier" - max. impr. -0.72  meV, min. impr. -0.18 meV
  #     hydro 5 f 9
  #     ionic 5 d auto
  #     hydro 6 h 16.4
  #     hydro 5 g 12.4
  #     hydro 5 g 34
  #     hydro 5 s 13.6
  #     hydro 5 p 10.4
  #  Further functions: ################################################################################
  #
  #  FHI-aims code project
  #  VB, Fritz-Haber Institut, 2009
  #
  #  Suggested "light" defaults for O atom (to be pasted into control.in file)
  #  Be sure to double-check any results obtained with these settings for post-processing,
  #  e.g., with the "tight" defaults and larger basis sets.
  #
  ################################################################################
    species        O
  #     global species definitions
      nucleus             8
      mass                15.9994
  #
      l_hartree           4
  #
      cut_pot             3.5  1.5  1.0
      basis_dep_cutoff    1e-4
  #
      radial_base         36 5.0
      radial_multiplier   1
       angular_grids specified
        division   0.2659   50
        division   0.4451  110
        division   0.6052  194
        division   0.7543  302
  #      division   0.8014  434
  #      division   0.8507  590
  #      division   0.8762  770
  #      division   0.9023  974
  #      division   1.2339 1202
  #      outer_grid 974
        outer_grid 302
  ################################################################################
  #
  #  Definition of "minimal" basis
  #
  ################################################################################
  #     valence basis states
      valence      2  s   2.
      valence      2  p   4.
  #     ion occupancy
      ion_occ      2  s   1.
      ion_occ      2  p   3.
  ################################################################################
  #
  #  Suggested additional basis functions. For production calculations,
  #  uncomment them one after another (the most important basis functions are
  #  listed first).
  #
  #  Constructed for dimers: 1.0 A, 1.208 A, 1.5 A, 2.0 A, 3.0 A
  #
  ################################################################################
  #  "First tier" - improvements: -699.05 meV to -159.38 meV
       hydro 2 p 1.8
       hydro 3 d 7.6
       hydro 3 s 6.4
  #  "Second tier" - improvements: -49.91 meV to -5.39 meV
  #     hydro 4 f 11.6
  #     hydro 3 p 6.2
  #     hydro 3 d 5.6
  #     hydro 5 g 17.6
  #     hydro 1 s 0.75
  #  "Third tier" - improvements: -2.83 meV to -0.50 meV
  #     ionic 2 p auto
  #     hydro 4 f 10.8
  #     hydro 4 d 4.7
  #     hydro 2 s 6.8
  #  "Fourth tier" - improvements: -0.40 meV to -0.12 meV
  #     hydro 3 p 5
  #     hydro 3 s 3.3
  #     hydro 5 g 15.6
  #     hydro 4 f 17.6
  #     hydro 4 d 14
  # Further basis functions - -0.08 meV and below
  #     hydro 3 s 2.1
  #     hydro 4 d 11.6
  #     hydro 3 p 16
  #     hydro 2 s 17.2
  
  -----------------------------------------------------------------------
  Completed first pass over input file control.in .
  -----------------------------------------------------------------------
  
  
  -----------------------------------------------------------------------
  Parsing geometry.in (first pass over file, find array dimensions only).
  The contents of geometry.in will be repeated verbatim below
  unless switched off by setting 'verbatim_writeout .false.' .
  in the first line of geometry.in .
  -----------------------------------------------------------------------
  
  #
  # This is the geometry file that corresponds to the current relaxation step.
  # If you do not want this file to be written, set the "write_restart_geometry" flag to .false.
  #  aims_uuid : DB20CF38-BE3F-4576-A1C7-7E976C51CEE1
  #
  lattice_vector      3.14971754     -0.00000000      0.00000000
  lattice_vector      0.00000000      3.14972819     -0.00000000
  lattice_vector     -0.00000000     -0.00000000      5.38230440
  atom       0.00019346      1.57470539      2.69115164 Pt
  atom       1.57479913      0.00051441      0.00000045 Pt
  atom      -0.00006691     -0.00017790      1.34557804 O
  atom      -0.00006691     -0.00017781      4.03672647 O
  #
  # What follows is the current estimated Hessian matrix constructed by the BFGS algorithm.
  # This is NOT the true Hessian matrix of the system.
  # If you do not want this information here, switch it off using the "hessian_to_restart_geometry" keyword.
  #
  trust_radius             0.2000000030
  hessian_file
  
  -----------------------------------------------------------------------
  Completed first pass over input file geometry.in .
  -----------------------------------------------------------------------
  

  Basic array size parameters:
  | Number of species                 :        2
  | Number of atoms                   :        4
  | Number of lattice vectors         :        3
  | Max. basis fn. angular momentum   :        3
  | Max. atomic/ionic basis occupied n:        6
  | Max. number of basis fn. types    :        3
  | Max. radial fns per species/type  :       14
  | Max. logarithmic grid size        :     1487
  | Max. radial integration grid size :       72
  | Max. angular integration grid size:      302
  | Max. angular grid division number :        8
  | Radial grid for Hartree potential :     1487
  | Number of spin channels           :        1

------------------------------------------------------------
          Reading file control.in.
------------------------------------------------------------

  XC: Using HSE-functional with OMEGA =  0.110000E+00 <units>.
  XC: For the actual units (bohr^-1 or Angstrom^-1), see below.
  hse_unit: Unit for the HSE06 hybrid functional screening parameter set to A^(-1).
  Spin treatment: No spin polarisation.
  Scalar relativistic treatment of kinetic energy: on-site free-atom approximation to ZORA.
  Charge =   0.000000E+00: Neutral system requested explicitly.
  Found k-point grid:        14        14        14
  Kohn-Sham electronic structure solved by the ELSI library.

  Plot band    1
  | begin  0.000000  0.000000  0.000000
  | end    0.000000  0.500000  0.000000
  | number of points:   31

  Plot band    2
  | begin  0.000000  0.500000  0.000000
  | end    0.500000  0.500000  0.000000
  | number of points:   31

  Plot band    3
  | begin  0.500000  0.500000  0.000000
  | end    0.000000  0.000000  0.000000
  | number of points:   31

  Plot band    4
  | begin  0.000000  0.000000  0.000000
  | end    0.000000  0.000000  0.500000
  | number of points:   31

  Plot band    5
  | begin  0.000000  0.000000  0.500000
  | end    0.000000  0.500000  0.500000
  | number of points:   31

  Plot band    6
  | begin  0.000000  0.500000  0.500000
  | end    0.500000  0.500000  0.500000
  | number of points:   31

  Plot band    7
  | begin  0.500000  0.500000  0.500000
  | end    0.000000  0.000000  0.500000
  | number of points:   31

  Plot band    8
  | begin  0.000000  0.000000  0.500000
  | end    0.500000  0.500000  0.500000
  | number of points:   31

  Plot band    9
  | begin  0.500000  0.500000  0.500000
  | end    0.500000  0.500000  0.000000
  | number of points:   31
  Calculating density of states with
  | energy interval :-18.000000  0.000000
  | points & tetrahedron method :  2000
 
  Reading configuration options for species Pt                  .
  | Found nuclear charge :  78.0000
  | Found atomic mass :    195.084000000000      amu
  | Found l_max for Hartree potential  :   4
  | Found cutoff potl. onset [A], width [A], scale factor :    3.50000    1.50000    1.00000
  | Threshold for basis-dependent cutoff potential is   0.100000E-03
  | Found data for basic radial integration grid :    72 points, outermost radius =    5.000 A
  | Found multiplier for basic radial grid :   1
  | Found angular grid specification: user-specified.
  | Specified grid contains     5 separate shells.
  | Check grid settings after all constraints further below.
  | Found free-atom valence shell :  6 s   1.000
  | Found free-atom valence shell :  5 p   6.000
  | Found free-atom valence shell :  5 d   9.000
  | Found free-atom valence shell :  4 f  14.000
  | Found free-ion valence shell :  6 s   0.000
  | Found free-ion valence shell :  5 p   6.000
  | Found free-ion valence shell :  5 d   8.000
  | Found free-ion valence shell :  4 f  14.000
  | Found hydrogenic basis function :  4 f   7.400
  | Found ionic basis function :  6 p , default cutoff radius.
  | Found ionic basis function :  6 s , default cutoff radius.
  | Found hydrogenic basis function :  3 d   2.600
  Species Pt                  : Missing cutoff potential type.
  Defaulting to exp(1/x)/(1-x)^2 type cutoff potential.
  Species Pt: No 'logarithmic' tag. Using default grid for free atom:
  | Default logarithmic grid data [bohr] : 0.1000E-03 0.1000E+03 0.1012E+01
  | Will include ionic basis functions of  2.0-fold positive Pt                   ion.
  Species Pt: On-site basis accuracy parameter (for Gram-Schmidt orthonormalisation) not specified.
  Using default value basis_acc =  0.1000000E-03.
  Species Pt                  : Using default innermost maximum threshold i_radial=  2 for radial functions.
  Species Pt                  : Default cutoff onset for free atom density etc. : 0.35000000E+01 AA.
  Species Pt                  : Basic radial grid will be enhanced according to radial_multiplier =   1, to contain    72 grid points.
 
  Reading configuration options for species O                   .
  | Found nuclear charge :   8.0000
  | Found atomic mass :    15.9994000000000      amu
  | Found l_max for Hartree potential  :   4
  | Found cutoff potl. onset [A], width [A], scale factor :    3.50000    1.50000    1.00000
  | Threshold for basis-dependent cutoff potential is   0.100000E-03
  | Found data for basic radial integration grid :    36 points, outermost radius =    5.000 A
  | Found multiplier for basic radial grid :   1
  | Found angular grid specification: user-specified.
  | Specified grid contains     5 separate shells.
  | Check grid settings after all constraints further below.
  | Found free-atom valence shell :  2 s   2.000
  | Found free-atom valence shell :  2 p   4.000
  | Found free-ion valence shell :  2 s   1.000
  | Found free-ion valence shell :  2 p   3.000
  | Found hydrogenic basis function :  2 p   1.800
  | Found hydrogenic basis function :  3 d   7.600
  | Found hydrogenic basis function :  3 s   6.400
  Species O                   : Missing cutoff potential type.
  Defaulting to exp(1/x)/(1-x)^2 type cutoff potential.
  Species O : No 'logarithmic' tag. Using default grid for free atom:
  | Default logarithmic grid data [bohr] : 0.1000E-03 0.1000E+03 0.1012E+01
  Species O : On-site basis accuracy parameter (for Gram-Schmidt orthonormalisation) not specified.
  Using default value basis_acc =  0.1000000E-03.
  Species O                   : Using default innermost maximum threshold i_radial=  2 for radial functions.
  Species O                   : Default cutoff onset for free atom density etc. : 0.35000000E+01 AA.
  Species O                   : Basic radial grid will be enhanced according to radial_multiplier =   1, to contain    36 grid points.
 
  Finished reading input file 'control.in'.
 
------------------------------------------------------------


------------------------------------------------------------
          Reading geometry description geometry.in.
------------------------------------------------------------
 * Large trust radius value found - resetting to the current value of max_atomic_move,      0.20000000 A.
  Found keyword 'hessian_file', indicating that this is the continuation of a structure optimization.
  However, the control.in file does not request the geometry to be optimized.
  Ignoring the request for a file 'hessian.aims' to be present.
  | The smallest distance between any two atoms is         2.07140166 AA.
  | The first atom of this pair is atom number                      3 .
  | The second atom of this pair is atom number                     1 .
  | Wigner-Seitz cell of the first atom image           0     1     0 .
  | (The Wigner-Seitz cell of the second atom is 0 0 0  by definition.)

  Symmetry information by spglib:
  | Precision set to  0.1E-04
  | Number of Operations  : 2
  | Space group           : 6
  | International         : Pm
  | Schoenflies           : Cs^1
  Input structure read successfully.
  The structure contains        4 atoms,  and a total of        172.000 electrons.

  Input geometry:
  | Unit cell:
  |        3.14971754        0.00000000        0.00000000
  |        0.00000000        3.14972819        0.00000000
  |        0.00000000        0.00000000        5.38230440
  | Atomic structure:
  |       Atom                x [A]            y [A]            z [A]
  |    1: Species Pt            0.00019346        1.57470539        2.69115164
  |    2: Species Pt            1.57479913        0.00051441        0.00000045
  |    3: Species O            -0.00006691       -0.00017790        1.34557804
  |    4: Species O            -0.00006691       -0.00017781        4.03672647

  Lattice parameters for 3D lattice (in Angstroms) :     3.149718    3.149728    5.382304
  Angle(s) between unit vectors (in degrees)       :    90.000000   90.000000   90.000000


  Quantities derived from the lattice vectors (in Angstrom^-1):
  | Reciprocal lattice vector 1:  1.994841  0.000000  0.000000
  | Reciprocal lattice vector 2:  0.000000  1.994834  0.000000
  | Reciprocal lattice vector 3:  0.000000  0.000000  1.167378
  | Unit cell volume                               :   0.533965E+02  Angstrom^3

  Fractional coordinates:
                         L1                L2                L3
       atom_frac         0.00006142        0.49994961        0.49999990  Pt
       atom_frac         0.49998106        0.00016332        0.00000008  Pt
       atom_frac        -0.00002124       -0.00005648        0.25000036  O
       atom_frac        -0.00002124       -0.00005645        0.74999966  O

 
  Finished reading input file 'geometry.in'.
 

 
  Consistency checks for stacksize environment parameter are next.
 
  | Maximum stacksize for task 0: unlimited
  | Maximum stacksize for task 1: unlimited
  | Maximum stacksize for task 2: unlimited
  | Maximum stacksize for task 3: unlimited
  | Maximum stacksize for task 4: unlimited
  | Maximum stacksize for task 5: unlimited
  | Maximum stacksize for task 6: unlimited
  | Maximum stacksize for task 7: unlimited
  | Current stacksize for task 0: unlimited
  | Current stacksize for task 1: unlimited
  | Current stacksize for task 2: unlimited
  | Current stacksize for task 3: unlimited
  | Current stacksize for task 4: unlimited
  | Current stacksize for task 5: unlimited
  | Current stacksize for task 6: unlimited
  | Current stacksize for task 7: unlimited
 
  Consistency checks for the contents of control.in are next.
 
  HSE06 functional: Converting omega to        0.05820949 bohr^-1.
  HSE06 screening parameters: omega_HF  =      0.05820949 bohr^-1, and
                              omega_PBE =      0.05820949 bohr^-1.
  MPI_IN_PLACE appears to work with this MPI implementation.
  | Keeping use_mpi_in_place .true. (see manual).
  Explicit treatment of the Coulomb operator is needed, but the RI method is not specified.
  Coulomb operator: Defaulting to 'LVL fast' resolution of identity - RI_type = LVL_fast
  Species Pt: Using default value for prodbas_acc =   1.000000E-04.
  Species Pt: Using default value max_l_prodbas =    20.
  Species O: Using default value for prodbas_acc =   1.000000E-04.
  Species O: Using default value max_l_prodbas =    20.
  Target number of points in a grid batch is not set. Defaulting to  100
  Method for grid partitioning is not set. Defaulting to parallel hash+maxmin partitioning.
  Batch size limit is not set. Defaulting to    200
  By default, will store active basis functions for each batch.
  If in need of memory, prune_basis_once .false. can be used to disable this option.
  communication_type for Hartree potential was not specified.
  Defaulting to calc_hartree .
  Defaulting to Pulay charge density mixer.
  Pulay mixer: Number of relevant iterations not set.
  Defaulting to    8 iterations.
  Pulay mixer: Number of initial linear mixing iterations not set.
  Defaulting to    0 iterations.
  Work space size for distributed Hartree potential not set.
  Defaulting to   0.200000E+03 MB.
  Mixing parameter for charge density mixing has not been set.
  Using default: charge_mix_param =     0.0500.
  The mixing parameter will be adjusted in iteration number     2 of the first full s.c.f. cycle only.
  Algorithm-dependent basis array size parameters:
  | n_max_pulay                         :        8
  Maximum number of self-consistency iterations not provided.
  Presetting  1000 iterations.
  Presetting      1001 iterations before the initial mixing cycle
  is restarted anyway using the sc_init_iter criterion / keyword.
  Presetting a factor      1.000 between actual scf density residual
  and density convergence criterion sc_accuracy_rho below which sc_init_iter
  takes no effect.
 * No s.c.f. convergence criteria (sc_accuracy_*) were provided in control.in.
 * The run will proceed with a reasonable default guess, but please check whether.
 * the s.c.f. cycles seem to take too much or too little time.
  Calculation of forces was not defined in control.in. No forces will be calculated.
  Geometry relaxation not requested: no relaxation will be performed.
 * Notice: The s.c.f. convergence criterion sc_accuracy_rho was not provided.
 * We used to stop in this case, and ask the user to provide reasonable
 * scf convergence criteria. However, this led some users to employ criteria
 * that led to extremely long run times, e.g., for simple relaxation.
 * We now preset a default value for sc_accuracy_rho if it is not set.
 * You may still wish to check if this setting is too tight or too loose for your needs.
 * Based on n_atoms and forces and force-correction status, FHI-aims chose sc_accuracy_rho =  0.100000E-05 .
  No accuracy limit for integral partition fn. given. Defaulting to  0.1000E-14.
  No threshold value for u(r) in integrations given. Defaulting to  0.1000E-05.
  No occupation type (smearing scheme) given. Defaulting to Gaussian broadening, width =  0.1000E-01 eV.
  The width will be adjusted in iteration number     2 of the first full s.c.f. cycle only.
  S.C.F. convergence parameters will be adjusted in iteration number     2 of the first full s.c.f. cycle only.
  No accuracy for occupation numbers given. Defaulting to  0.1000E-12.
  No threshold value for occupation numbers given. Defaulting to  0.0000E+00.
  No accuracy for fermi level given. Defaulting to  0.1000E-19.
  Maximum # of iterations to find E_F not set. Defaulting to  200.
 * You have  2744 k-points in your system, but only     8 MPI-tasks available.
 * In this case using ScaLAPACK is not necessary / supported.
 * Switching to LAPACK (via ELSI) instead.
  Will not use alltoall communication since running on < 1024 CPUs.
  Threshold for basis singularities not set.
  Default threshold for basis singularities:  0.1000E-04
  partition_type (choice of integration weights) for integrals was not specified.
  | Using a version of the partition function of Stratmann and coworkers ('stratmann_sparse').
  | At each grid point, the set of atoms used to build the partition table is smoothly restricted to
  | only those atoms whose free-atom density would be non-zero at that grid point.
  Partitioning for Hartree potential was not defined. Using partition_type for integrals.
  | Adjusted default value of keyword multip_moments_threshold to:       0.10000000E-11
  | This value may affect high angular momentum components of the Hartree potential in periodic systems.
  Threshold for auxiliary basis singularities not set.
  Default threshold for auxiliary basis singularities:  0.1000E-04
  No q(lm)/r^(l+1) cutoff set for long-range Hartree potential.
  | Using default value of  0.100000E-09 .
  | Verify using the multipole_threshold keyword.
  Defaulting to new monopole extrapolation.
  Density update method: automatic selection selected.
  Using density matrix based charge density update.
  Using density matrix based charge density update.
  Using packed matrix style: index .
 * NOTE: You are attempting to run a periodic structure with an exchange treatment
 * which requires a two-electron Coulomb operator (Hartree-Fock or a hybrid functional).
 * The present implementation is reliable to our knowledge, but some things
 * (like band structure output, or perhaps the auxilary basis set for small
 * orbital basis sets - see the "for_aux" keyword) require extra care.
 * Please let us know if you encounter any trouble.
  Coulomb operator: Defaulting to screening threshold for four-center integrals:   0.100000E-06
  Coulomb operator: Defaulting to screening threshold for Coulomb matrix:   0.100000E-09
  Fock matrix calculation: Setting the screening threshold for overlap matrix to coul_mat_threshold:   0.100000E-09
  Coulomb operator: Defaulting to 'LVL_fast' resolution of identity - RI_type = LVL_fast 
  No other resolution of identity version is supported for periodic boundary conditions at present.
  Coulomb operator: Defaulting to logarithmic spherical Bessel transform integrals (use_logsbt .true.).
  HSE with LVL_fast: Also defaulting to logarithmic spherical Bessel transform integrals.
  Defaulting to use time-reversal symmetry for k-point grid.
  Charge integration errors on the 3D integration grid will be compensated
  by explicit normalization and distribution of residual charges.
  Use the "compensate_multipole_errors" flag to change this behaviour.
  LVL not implemented with density matrix yet
  -> switching to transformed overlap
  LVL probably works better with logsbt
  Default to 1D ("use_logsbt") integrations for auxiliary 2-center integrals.
  Default onset of logarithmic r-grid for SBT is -38.000000000000
  Default onset of logarithmic k-grid for SBT is -25.000000000000
  Default range of logarithmic r- and k-grid for SBT is  45.000000000000
  Default number of logarithmic r- and k-grid for SBT is   4096
  * Use logSBT for radial HSE integration, too
 * NOTE: Band structure and exact exchange are requested at the same time,
 * and exx_band_structure_version is set to 1. 
 * exx_band_structure_version 1 is evaluated in a real-space formalism. It is fast
 * and the preferred version. HOWEVER, it does require a sufficiently
 * dense 'k_grid' to be used for the preceding s.c.f. cycle.
 * If the 'k_grid used for s.c.f. is NOT dense enough, the real-
 * space approach will produce bands that are OBVIOUSLY incorrect.
 * You cannot miss this - they won't look 'slightly' correct. In
 * that case, please try to increase the 'k_grid' parameters used
 * for the s.c.f. cycle. In particular, please avoid k_grid dimensions 
 * of '1' (one) in any dimension. We apologize for this inconvenience.
 * On the bright side, if you use exx_band_structure_version 1 
 * correctly, it will give reliable results without much overhead.
 * 
 * If your band structure does not look reasonable, increase the s.c.f. k-point
 * grid density. Again, it is especially recommended that you avoid dimensions of 1 when
 * specifying k_grid and using this option, even for large unit cells where a
 * gamma-point-only k-grid would be sufficient to converge the accuracy of the
 * calculation.
 * 
 * Please test (e.g., by comparing results from different k_grid settings) when in any doubt.
  Set 'collect_eigenvectors' to be '.true.' for all serial calculations. This is mandatory.
  Set 'collect_eigenvectors' to be '.true.' for KS_method lapack_fast and serial.
 
  Consistency checks for the contents of geometry.in are next.
 

  Range separation radius for Ewald summation (hartree_convergence_parameter):      3.33836340 bohr.
  Number of empty states per atom not set in control.in - providing a guess from actual geometry.
  | Total number of empty states used during s.c.f. cycle:       24
  If you use a very high smearing, use empty_states (per atom!) in control.in to increase this value.
  * Since a DOS, bandstructure or SOC calculation was requested, the number of empty states requested was INCREASED.
  | Number of empty states (old):   48.00000
  | Number of empty states (new):   58.00000

  Structure-dependent array size parameters: 
  | Maximum number of distinct radial functions  :       24
  | Maximum number of basis functions            :      140
  | Number of Kohn-Sham states (occupied + empty):      115
------------------------------------------------------------
  Setting Coulomb cut-width to  1.091868692359 * rcut.
  Setting Coulomb cutting radius rcut to 22.048022780000 A.

------------------------------------------------------------
          Preparing all fixed parts of the calculation.
------------------------------------------------------------
  Determining machine precision:
    2.225073858507201E-308
  Setting up grids for atomic and cluster calculations.

  Creating wave function, potential, and density for free atoms.
  Runtime choices for atomic solver:
  | atomic solver xc        : PBE
  | compute density gradient: 1
  | compute kinetic density : F

  Species: Pt

  List of occupied orbitals and eigenvalues:
    n    l              occ      energy [Ha]    energy [eV]
    1    0           2.0000     -3153.099128    -85800.1927
    2    0           2.0000      -515.585619    -14029.7985
    3    0           2.0000      -119.497959     -3251.7049
    4    0           2.0000       -25.565949      -695.6849
    5    0           2.0000        -3.732860      -101.5763
    6    0           1.0000        -0.202680        -5.5152
    2    1           6.0000      -445.949326    -12134.8986
    3    1           6.0000       -99.652350     -2711.6784
    4    1           6.0000       -19.101055      -519.7661
    5    1           6.0000        -2.050716       -55.8028
    3    2          10.0000       -78.240654     -2129.0365
    4    2          10.0000       -11.272849      -306.7498
    5    2           9.0000        -0.221200        -6.0192
    4    3          14.0000        -2.577894       -70.1481


  Species: O

  List of occupied orbitals and eigenvalues:
    n    l              occ      energy [Ha]    energy [eV]
    1    0           2.0000       -18.926989      -515.0296
    2    0           2.0000        -0.880247       -23.9527
    2    1           4.0000        -0.331514        -9.0210


  Adding cutoff potential to free-atom effective potential.
  Creating fixed part of basis set: Ionic, confined, hydrogenic.
 
  Pt                   ion:

  List of free ionic orbitals and eigenvalues:
    n    l      energy [Ha]    energy [eV]
    1    0     -3153.944388    -85823.1934
    2    0      -516.374474    -14051.2643
    3    0      -120.278274     -3272.9384
    4    0       -26.344243      -716.8633
    5    0        -4.507613      -122.6584
    2    1      -446.736765    -12156.3259
    3    1      -100.432254     -2732.9007
    4    1       -19.879176      -540.9399
    5    1        -2.820901       -76.7606
    3    2       -79.020090     -2150.2461
    4    2       -12.050716      -327.9167
    5    2        -0.950990       -25.8778
    4    3        -3.355307       -91.3026


  List of ionic basis orbitals and eigenvalues:
    n    l      energy [Ha]    energy [eV]    outer radius [A]
    6    1        -0.525532       -14.3005       4.562397
    6    0        -0.812649       -22.1133       4.562397

 
  Pt                   hydrogenic:
 
  List of hydrogenic basis orbitals: 
    n    l      effective z      eigenvalue [eV]  inner max. [A]     outer max. [A]     outer radius [A]   
    4    3         7.400000       -46.5648           1.146169           1.146169           4.506962
    3    2         2.600000        -9.9241           1.779842           1.779842           4.618515
 
 
  O                    hydrogenic:
 
  List of hydrogenic basis orbitals: 
    n    l      effective z      eigenvalue [eV]  inner max. [A]     outer max. [A]     outer radius [A]   
    2    1         1.800000       -10.9749           1.164242           1.164242           4.578029
    3    2         7.600000       -87.3180           0.624125           0.624125           3.251020
    3    0         6.400000       -61.9207           0.061167           1.081902           4.001998
 
  Creating atomic-like basis functions for current effective potential.

  Species Pt                  :

  List of atomic basis orbitals and eigenvalues:
    n    l      energy [Ha]    energy [eV]    outer radius [A]
    1    0     -3153.099128    -85800.1927       0.122365
    2    0      -515.585619    -14029.7985       0.321431
    3    0      -119.497959     -3251.7049       0.669333
    4    0       -25.565949      -695.6849       1.393787
    5    0        -3.732860      -101.5763       3.402290
    6    0        -0.202680        -5.5152       4.562397
    2    1      -445.949326    -12134.8986       0.333438
    3    1       -99.652350     -2711.6784       0.720273
    4    1       -19.101055      -519.7661       1.575030
    5    1        -2.050716       -55.8028       4.087050
    3    2       -78.240654     -2129.0365       0.765673
    4    2       -11.272849      -306.7498       1.915300
    5    2        -0.221200        -6.0192       4.506962
    4    3        -2.577894       -70.1481       3.402290


  Species O                   :

  List of atomic basis orbitals and eigenvalues:
    n    l      energy [Ha]    energy [eV]    outer radius [A]
    1    0       -18.926989      -515.0296       1.415765
    2    0        -0.880247       -23.9527       4.413171
    2    1        -0.331514        -9.0210       4.522403

  Assembling full basis from fixed parts.
  | Species Pt :   atomic orbital   1 s accepted.
  | Species Pt :   atomic orbital   2 s accepted.
  | Species Pt :   atomic orbital   3 s accepted.
  | Species Pt :   atomic orbital   4 s accepted.
  | Species Pt :   atomic orbital   5 s accepted.
  | Species Pt :   atomic orbital   6 s accepted.
  | Species Pt :    ionic orbital   6 s accepted.
  | Species Pt :   atomic orbital   2 p accepted.
  | Species Pt :   atomic orbital   3 p accepted.
  | Species Pt :   atomic orbital   4 p accepted.
  | Species Pt :   atomic orbital   5 p accepted.
  | Species Pt :    ionic orbital   6 p accepted.
  | Species Pt :   atomic orbital   3 d accepted.
  | Species Pt :   atomic orbital   4 d accepted.
  | Species Pt :   atomic orbital   5 d accepted.
  | Species Pt :    hydro orbital   3 d accepted.
  | Species Pt :   atomic orbital   4 f accepted.
  | Species Pt :    hydro orbital   4 f accepted.
  | Species O :   atomic orbital   1 s accepted.
  | Species O :    hydro orbital   3 s accepted.
  | Species O :   atomic orbital   2 s accepted.
  | Species O :   atomic orbital   2 p accepted.
  | Species O :    hydro orbital   2 p accepted.
  | Species O :    hydro orbital   3 d accepted.
 
  Basis size parameters after reduction:
  | Total number of radial functions:       24
  | Total number of basis functions :      140
 
  Per-task memory consumption for arrays in subroutine allocate_ext:
  |           9.140848MB.
  Testing on-site integration grid accuracy.
  |  Species  Function  <phi|h_atom|phi> (log., in eV)  <phi|h_atom|phi> (rad., in eV)
           1        1             -85800.1927430741             -85799.8488530887 ***
           1        2             -14029.7985141093             -14029.7919754462
           1        3              -3251.7049213582              -3251.7045800048
           1        4               -695.6848560016               -695.6848304306
           1        5               -101.5762915836               -101.5762888810
           1        6                 -5.5240480860                 -5.5271251387
           1        7                  6.6025004501                  6.5645021630 ***
           1        8             -12134.8985829961             -12134.8985814838
           1        9              -2711.6784185979              -2711.6784119706
           1       10               -519.7661471610               -519.7661411428
           1       11                -55.8028188823                -55.8028174382
           1       12                  0.7406633387                  0.7376657585
           1       13              -2129.0365177978              -2129.0365151313
           1       14               -306.7498264777               -306.7498229758
           1       15                 -6.0197227729                 -6.0199120643
           1       16                  7.2063060013                  7.1819750069
           1       17                -70.1480733271                -70.1480725137
           1       18                 21.3061252265                 21.3060942854
           2       19               -515.0295626295               -515.0294562738
           2       20                 15.1698434419                 15.1699322204
           2       21                -21.6038822678                -21.6039118105
           2       22                 -9.0211123393                 -9.0212703513
           2       23                  8.3047696391                  8.2854840999
           2       24                 45.8428042125                 45.8427461222
 * Note: Onsite integrals marked "***" above are less accurate than
 * onsite_accuracy_threshold =    0.03000 eV. Usually, this is harmless.
 * However, one integral did have a negative value. This integral could be important.
 * When in doubt, tighten the "radial" and/or "radial_multiplier" flags to check.

  Preparing densities etc. for the partition functions (integrals / Hartree potential).

  Preparations completed.
  max(cpu_time)          :      0.465 s.
  Wall clock time (cpu1) :      0.509 s.
------------------------------------------------------------

  Initializing index lists of integration centers etc. from given atomic structure:
  Mapping all atomic coordinates to central unit cell.

  Initializing the k-points
  Using symmetry for reducing the k-points
  | k-points reduced from:     2744 to     1376
  | Number of k-points                             :      1376
  | Consuming      58996 KiB for k_phase_exx.
  The eigenvectors in the calculations are COMPLEX.
  | K-points in task   0:       172
  | K-points in task   1:       172
  | K-points in task   2:       172
  | K-points in task   3:       172
  | K-points in task   4:       172
  | K-points in task   5:       172
  | K-points in task   6:       172
  | K-points in task   7:       172
  | Number of basis functions in the Hamiltonian integrals :      2882
  | Number of basis functions in a single unit cell        :       140
  | Number of centers in hartree potential         :       975
  | Number of centers in hartree multipole         :       545
  | Number of centers in electron density summation:       384
  | Number of centers in basis integrals           :       419
  | Number of centers in integrals                 :       174
  | Number of centers in hamiltonian               :       392
  | Consuming       2967 KiB for k_phase.
  | Number of super-cells (origin) [n_cells]                     :         847
  | Number of super-cells (after PM_index) [n_cells]             :         138
  | Number of super-cells in hamiltonian [n_cells_in_hamiltonian]:         138
  | Size of matrix packed + index [n_hamiltonian_matrix_size] :      283751

------------------------------------------------------------
          Begin self-consistency loop: Initialization.

          Date     :  20241202, Time     :  150848.140
------------------------------------------------------------
  | Estimated reciprocal-space cutoff momentum G_max:         2.81681032 bohr^-1 .
  | Reciprocal lattice points for long-range Hartree potential:     140
  Partitioning the integration grid into batches with parallel hashing+maxmin method.
  | Number of batches:      512
  | Maximal batch size:      67
  | Minimal batch size:      57
  | Average batch size:      61.078
  | Standard deviation of batch sizes:       2.685

  Integration load balanced across     8 MPI tasks.
  Work distribution over tasks is as follows:
  Task     0 has       3876 integration points.
  Task     1 has       3914 integration points.
  Task     2 has       3883 integration points.
  Task     3 has       3933 integration points.
  Task     4 has       3883 integration points.
  Task     5 has       3911 integration points.
  Task     6 has       3933 integration points.
  Task     7 has       3939 integration points.
  Initializing partition tables, free-atom densities, potentials, etc. across the integration grid (initialize_grid_storage).
  | initialize_grid_storage: Actual outermost partition radius vs. multipole_radius_free
  | (-- VB: in principle, multipole_radius_free should be larger, hence this output)
  | Species        1: Confinement radius =              4.999999999999999 AA, multipole_radius_free =              5.031147476913517 AA.
  | Species        1: outer_partition_radius set to              5.031147476913517 AA .
  | Species        2: Confinement radius =              4.999999999999999 AA, multipole_radius_free =              5.048384829883283 AA.
  | Species        2: outer_partition_radius set to              5.048384829883283 AA .
  | The sparse table of interatomic distances needs        810.58 kbyte instead of      1404.49 kbyte of memory.
  | Net number of integration points:    31272
  | of which are non-zero points    :    26701
  | Numerical average free-atom electrostatic potential    :    -22.93814985 eV
  Renormalizing the initial density to the exact electron count on the 3D integration grid.
  | Initial density: Formal number of electrons (from input files) :     172.0000000000
  | Integrated number of electrons on 3D grid     :     171.9975217303
  | Charge integration error                      :      -0.0024782697
  | Normalization factor for density and gradient :       1.0000144088
  Renormalizing the free-atom superposition density to the exact electron count on the 3D integration grid.
  | Formal number of electrons (from input files) :     172.0000000000
  | Integrated number of electrons on 3D grid     :     171.9975217303
  | Charge integration error                      :      -0.0024782697
  | Normalization factor for density and gradient :       1.0000144088
  Obtaining max. number of non-zero basis functions in each batch (get_n_compute_maxes).
  | Maximal number of non-zero basis functions:      853 in task     0
  | Maximal number of non-zero basis functions:      833 in task     1
  | Maximal number of non-zero basis functions:      845 in task     2
  | Maximal number of non-zero basis functions:      844 in task     3
  | Maximal number of non-zero basis functions:      827 in task     4
  | Maximal number of non-zero basis functions:      831 in task     5
  | Maximal number of non-zero basis functions:      832 in task     6
  | Maximal number of non-zero basis functions:      844 in task     7
  Allocating       42.255 MB for KS_eigenvector_complex
  Integrating Hamiltonian matrix: batch-based integration.
  Time summed over all CPUs for integration: real work        5.563 s, elapsed        5.636 s
  Integrating overlap matrix.
  Time summed over all CPUs for integration: real work        3.733 s, elapsed        3.802 s

  Updating Kohn-Sham eigenvalues and eigenvectors using ELSI and the (modified) LAPACK eigensolver.
  Singularity check in k-point 8, task 0 (analysis for other k-points/tasks may follow below):
  Overlap matrix is not singular
  | Lowest and highest eigenvalues :  0.2366E-02,  0.7553E+01
  Finished singularity check of overlap matrix
  | Time :     0.032 s
  Starting LAPACK eigensolver
  Finished Cholesky decomposition
  | Time :     0.014 s
  Finished transformation to standard eigenproblem
  | Time :     0.005 s
  Finished solving standard eigenproblem
  | Time :     0.009 s
  Finished back-transformation of eigenvectors
  | Time :     0.001 s

  Obtaining occupation numbers and electronic chemical potential using ELSI.
  | Note that, for insulating systems, the printed 'chemical potential' value is not uniquely defined.
  | It can be anywhere in the energy gap, as long as it correctly separates occupied and unoccupied states.
  | In systems with a gap, the physically relevant chemical potential is the VBM or HOMO.

  | Chemical potential (Fermi level):    -3.95844394 eV
  Writing Kohn-Sham eigenvalues.
  K-point:       1 at    0.000000    0.000000    0.000000 (in units of recip. lattice)

  State    Occupation    Eigenvalue [Ha]    Eigenvalue [eV]
      1       2.00000       -3153.084090       -85799.78355
      2       2.00000       -3153.084090       -85799.78355
      3       2.00000        -515.587349       -14029.84561
      4       2.00000        -515.587349       -14029.84560
      5       2.00000        -445.953600       -12135.01488
      6       2.00000        -445.953600       -12135.01488
      7       2.00000        -445.953596       -12135.01477
      8       2.00000        -445.953596       -12135.01477
      9       2.00000        -445.953589       -12135.01459
     10       2.00000        -445.953589       -12135.01458
     11       2.00000        -119.501709        -3251.80694
     12       2.00000        -119.501709        -3251.80694
     13       2.00000         -99.656712        -2711.79711
     14       2.00000         -99.656712        -2711.79711
     15       2.00000         -99.656678        -2711.79618
     16       2.00000         -99.656678        -2711.79618
     17       2.00000         -99.656624        -2711.79471
     18       2.00000         -99.656624        -2711.79470
     19       2.00000         -78.244962        -2129.15375
     20       2.00000         -78.244962        -2129.15375
     21       2.00000         -78.244961        -2129.15371
     22       2.00000         -78.244961        -2129.15371
     23       2.00000         -78.244928        -2129.15281
     24       2.00000         -78.244928        -2129.15281
     25       2.00000         -78.244908        -2129.15227
     26       2.00000         -78.244908        -2129.15227
     27       2.00000         -78.244902        -2129.15211
     28       2.00000         -78.244902        -2129.15211
     29       2.00000         -25.570608         -695.81165
     30       2.00000         -25.570608         -695.81165
     31       2.00000         -19.106197         -519.90609
     32       2.00000         -19.106197         -519.90608
     33       2.00000         -19.105998         -519.90066
     34       2.00000         -19.105998         -519.90066
     35       2.00000         -19.105676         -519.89189
     36       2.00000         -19.105676         -519.89189
     37       2.00000         -18.972962         -516.28057
     38       2.00000         -18.972962         -516.28057
     39       2.00000         -11.278142         -306.89385
     40       2.00000         -11.278142         -306.89385
     41       2.00000         -11.278098         -306.89265
     42       2.00000         -11.278098         -306.89265
     43       2.00000         -11.277815         -306.88495
     44       2.00000         -11.277815         -306.88495
     45       2.00000         -11.277658         -306.88069
     46       2.00000         -11.277658         -306.88069
     47       2.00000         -11.277633         -306.88002
     48       2.00000         -11.277633         -306.88002
     49       2.00000          -3.741621         -101.81467
     50       2.00000          -3.741574         -101.81341
     51       2.00000          -2.583694          -70.30589
     52       2.00000          -2.583692          -70.30583
     53       2.00000          -2.583647          -70.30461
     54       2.00000          -2.583647          -70.30461
     55       2.00000          -2.583248          -70.29375
     56       2.00000          -2.583243          -70.29363
     57       2.00000          -2.583224          -70.29311
     58       2.00000          -2.583224          -70.29311
     59       2.00000          -2.583122          -70.29033
     60       2.00000          -2.583122          -70.29033
     61       2.00000          -2.582901          -70.28431
     62       2.00000          -2.582901          -70.28430
     63       2.00000          -2.582885          -70.28387
     64       2.00000          -2.582885          -70.28387
     65       2.00000          -2.064688          -56.18302
     66       2.00000          -2.064343          -56.17363
     67       2.00000          -2.064343          -56.17363
     68       2.00000          -2.062686          -56.12854
     69       2.00000          -2.057868          -55.99743
     70       2.00000          -2.057868          -55.99743
     71       2.00000          -1.007685          -27.42050
     72       2.00000          -0.963405          -26.21559
     73       2.00000          -0.564651          -15.36493
     74       2.00000          -0.482583          -13.13174
     75       2.00000          -0.482582          -13.13173
     76       2.00000          -0.415209          -11.29842
     77       2.00000          -0.415209          -11.29841
     78       2.00000          -0.392945          -10.69258
     79       2.00000          -0.346124           -9.41852
     80       2.00000          -0.308170           -8.38574
     81       2.00000          -0.272537           -7.41610
     82       2.00000          -0.213834           -5.81872
     83       2.00000          -0.211028           -5.74236
     84       2.00000          -0.211027           -5.74235
     85       2.00000          -0.200410           -5.45343
     86       2.00000          -0.196028           -5.33419
     87       0.00000          -0.135958           -3.69962
     88       0.00000          -0.091276           -2.48374
     89       0.00000          -0.091276           -2.48374
     90       0.00000          -0.017974           -0.48911
     91       0.00000           0.062044            1.68829
     92       0.00000           0.340756            9.27246
     93       0.00000           0.340762            9.27260
     94       0.00000           0.347898            9.46678
     95       0.00000           0.358772            9.76270
     96       0.00000           0.358776            9.76280
     97       0.00000           0.369521           10.05518
     98       0.00000           0.521834           14.19982
     99       0.00000           0.573085           15.59444
    100       0.00000           0.631344           17.17974
    101       0.00000           0.711252           19.35415
    102       0.00000           0.775893           21.11313
    103       0.00000           0.780834           21.24758
    104       0.00000           0.780839           21.24772
    105       0.00000           0.799728           21.76172
    106       0.00000           0.808615           22.00353
    107       0.00000           0.820362           22.32317
    108       0.00000           0.820364           22.32324
    109       0.00000           0.954244           25.96630
    110       0.00000           0.954247           25.96637
    111       0.00000           0.994303           27.05635
    112       0.00000           1.029834           28.02320
    113       0.00000           1.088820           29.62830
    114       0.00000           1.088826           29.62847
    115       0.00000           1.099072           29.90726

  What follows are estimated values for band gap, HOMO, LUMO, etc.
  | They are estimated on a discrete k-point grid and not necessarily exact.
  | For converged numbers, create a DOS and/or band structure plot on a denser k-grid.

  Highest occupied state (VBM) at     -3.96936458 eV (relative to internal zero)
  | Occupation number:      1.87751154
  | K-point:    1043 at    0.500000    0.428571    0.000000 (in units of recip. lattice)

  Lowest unoccupied state (CBM) at    -3.95735058 eV (relative to internal zero)
  | Occupation number:      0.87711804
  | K-point:    1061 at    0.500000    0.500000    0.928571 (in units of recip. lattice)

  ESTIMATED overall HOMO-LUMO gap:      0.01201400 eV between HOMO at k-point 1043 and LUMO at k-point 1061
  | This appears to be an indirect band gap.
  | Smallest direct gap :      0.05500225 eV for k_point 1043 at    0.500000    0.428571    0.000000 (in units of recip. lattice)
  However, this system has fractional occupation numbers. Since we use a finite k-point grid,
  this material is metallic within the approximate finite broadening function (occupation_type)
  applied to determine the occupation numbers.
  Calculating total energy contributions from superposition of free atom densities.

  Total energy components:
  | Sum of eigenvalues            :      -24023.19863487 Ha     -653704.49497330 eV
  | XC energy correction          :        -736.30581433 Ha      -20035.90062321 eV
  | XC potential correction       :         962.73960748 Ha       26197.47763239 eV
  | Free-atom electrostatic energy:      -14447.43976256 Ha     -393134.83841963 eV
  | Hartree energy correction     :           0.00000000 Ha           0.00000000 eV
  | Entropy correction            :          -0.00000032 Ha          -0.00000881 eV
  | ---------------------------
  | Total energy                  :      -38244.20460428 Ha    -1040677.75638375 eV
  | Total energy, T -> 0          :      -38244.20460460 Ha    -1040677.75639256 eV  <-- do not rely on this value for anything but (periodic) metals
  | Electronic free energy        :      -38244.20460493 Ha    -1040677.75640138 eV

  Derived energy quantities:
  | Kinetic energy                :       42753.36493858 Ha     1163378.25201260 eV
  | Electrostatic energy          :      -80261.26372854 Ha    -2184020.10777314 eV
  | Energy correction for multipole
  | error in Hartree potential    :           0.00000000 Ha           0.00000000 eV
  | Sum of eigenvalues per atom                           :     -163426.12374332 eV
  | Total energy (T->0) per atom                          :     -260169.43909814 eV  <-- do not rely on this value for anything but (periodic) metals
  | Electronic free energy per atom                       :     -260169.43910034 eV
  
  --------------------------------------------
  Constructing auxiliary basis (full product) ...
  
  Product basis:
  | charge radius: extent of product basis function
  | field radius: extent of its Coulomb potential
  | Species   l  charge radius    field radius
  |    Pt     0     0.738101 A      7.084772 A
  |    Pt     0     1.091470 A      6.346622 A
  |    Pt     0     1.536988 A      5.826100 A
  |    Pt     0     2.036025 A      6.118077 A
  |    Pt     0     3.010779 A      6.746661 A
  |    Pt     0     3.797996 A      7.531337 A
  |    Pt     0     4.188210 A      8.510685 A
  |    Pt     0     4.344663 A      8.510685 A
  |    Pt     0     4.398103 A      4.398103 A
  |    Pt     0     4.506962 A     14.048937 A
  |    Pt     0     4.506962 A     19.305621 A
  |    Pt     0     4.562397 A     31.868583 A
  |    Pt     0     4.562397 A     38.753474 A
  |    Pt     0     4.618515 A     42.735086 A
  |    Pt     0     4.618515 A     44.331489 A
  |    Pt     0     4.618515 A     44.876766 A
  |    Pt     1     0.738101 A      0.738101 A
  |    Pt     1     1.039381 A      1.039381 A
  |    Pt     1     1.393787 A      1.393787 A
  |    Pt     1     1.801734 A      1.801734 A
  |    Pt     1     2.599968 A      2.599968 A
  |    Pt     1     3.239920 A      3.239920 A
  |    Pt     1     3.988333 A      3.988333 A
  |    Pt     1     4.239725 A      4.239725 A
  |    Pt     1     4.344663 A      4.344663 A
  |    Pt     1     4.452200 A      5.548058 A
  |    Pt     1     4.506962 A     13.543027 A
  |    Pt     1     4.562397 A     18.839323 A
  |    Pt     1     4.562397 A     23.765170 A
  |    Pt     1     4.618515 A     36.904019 A
  |    Pt     1     4.618515 A     41.702885 A
  |    Pt     1     4.618515 A     43.792836 A
  |    Pt     1     4.618515 A     44.876766 A
  |    Pt     2     0.865239 A      0.865239 A
  |    Pt     2     1.233400 A      1.233400 A
  |    Pt     2     2.036025 A      2.036025 A
  |    Pt     2     2.506341 A      2.506341 A
  |    Pt     2     3.123249 A      3.123249 A
  |    Pt     2     3.988333 A      3.988333 A
  |    Pt     2     4.188210 A      4.188210 A
  |    Pt     2     4.344663 A      4.344663 A
  |    Pt     2     4.452200 A      7.623972 A
  |    Pt     2     4.506962 A     15.682910 A
  |    Pt     2     4.562397 A     21.030446 A
  |    Pt     2     4.562397 A     31.098845 A
  |    Pt     2     4.562397 A     38.753474 A
  |    Pt     2     4.618515 A     42.735086 A
  |    Pt     2     4.618515 A     44.876766 A
  |    Pt     3     1.174538 A      1.174538 A
  |    Pt     3     1.674307 A      1.674307 A
  |    Pt     3     2.011286 A      2.011286 A
  |    Pt     3     2.974196 A      2.974196 A
  |    Pt     3     3.844711 A      3.844711 A
  |    Pt     3     4.291873 A      4.291873 A
  |    Pt     3     4.398103 A      4.398103 A
  |    Pt     3     4.506962 A      9.735677 A
  |    Pt     3     4.562397 A     10.735941 A
  |    Pt     3     4.562397 A     14.753003 A
  |    Pt     3     4.562397 A     18.384288 A
  |    Pt     3     4.562397 A     24.353389 A
  |    Pt     3     4.618515 A     37.817442 A
  |    Pt     3     4.618515 A     41.702885 A
  |    Pt     3     4.618515 A     44.331489 A
  |    Pt     4     1.823895 A      1.823895 A
  |    Pt     4     2.797843 A      2.797843 A
  |    Pt     4     3.751848 A      3.751848 A
  |    Pt     4     4.239725 A      4.239725 A
  |    Pt     4     4.344663 A      4.344663 A
  |    Pt     4     4.452200 A      4.452200 A
  |    Pt     4     4.506962 A      5.897762 A
  |    Pt     4     4.506962 A     10.099361 A
  |    Pt     4     4.562397 A     16.876489 A
  |    Pt     4     4.562397 A     34.294005 A
  |    Pt     4     4.618515 A     40.201140 A
  |    Pt     4     4.618515 A     43.260728 A
  |    Pt     5     4.037390 A      4.037390 A
  |    Pt     5     4.291873 A      4.291873 A
  |    Pt     5     4.398103 A      4.398103 A
  |    Pt     5     4.452200 A      4.452200 A
  |    Pt     5     4.506962 A      4.506962 A
  |    Pt     5     4.506962 A     20.774914 A
  |    Pt     5     4.562397 A     35.575084 A
  |    Pt     5     4.562397 A     40.695615 A
  |    Pt     6     4.239725 A      4.239725 A
  |    Pt     6     4.398103 A     22.631010 A
  |    Pt     6     4.506962 A     36.012658 A
  |    O      0     4.306578 A      4.306578 A
  |    O      0     4.359549 A      4.359549 A
  |    O      0     4.467453 A      4.467453 A
  |    O      0     4.522403 A     27.614504 A
  |    O      0     4.578029 A     37.485932 A
  |    O      0     4.578029 A     41.845764 A
  |    O      0     4.578029 A     43.942876 A
  |    O      0     4.578029 A     44.483374 A
  |    O      1     4.413171 A      7.109045 A
  |    O      1     4.467453 A     12.628323 A
  |    O      1     4.522403 A     17.142603 A
  |    O      1     4.578029 A     34.834763 A
  |    O      1     4.578029 A     40.338874 A
  |    O      1     4.578029 A     43.408945 A
  |    O      1     4.578029 A     44.483374 A
  |    O      2     4.413171 A      4.413171 A
  |    O      2     4.467453 A      7.557140 A
  |    O      2     4.522403 A     27.954162 A
  |    O      2     4.578029 A     37.485932 A
  |    O      2     4.578029 A     41.845764 A
  |    O      2     4.578029 A     43.942876 A
  |    O      3     3.498446 A     22.432626 A
  |    O      3     3.498446 A     36.580516 A
  |    O      3     3.541477 A     41.337315 A
  |    O      4     3.251020 A     37.030457 A

  | Shrink_full_auxil_basis : there are      111  radial auxiliary wave functions
                            accepted and     275 rejected.
  | Shrink_full_auxil_basis : there are totally              107667 partial auxiliary wave functions.
  prodbas_tasks_distribution_pbc not up to date - distributing tasks.
 
  | Number of product basis functions per thread : 13459
  Parallel distribution of product basis not up to date - distributing tasks.
 
  | Number of product basis functions per thread :   143
  | Minimal requirement for computer memory :           0.094 Gbs
  Minimal free memory per node on init_fm entry [GB]:    123.30
  -----------------------------------------
  --- Initializing Fock matrix calculations
  -----------------------------------------
  screening_threshold (crit_val) =  0.000000100000
  coul_mat_threshold =  0.000000000100
  No atoms are split internally
  Number of super-cells in X Y Z:       5       5       3
  Number of atoms pairs total:         1076
  Atom pair distribution:
  Cell:       -3      -1      -1 atom pairs:        1
  Cell:       -3      -1       0 atom pairs:        2
  Cell:       -3      -1       1 atom pairs:        1
  Cell:       -3       0      -1 atom pairs:        1
  Cell:       -3       0       0 atom pairs:        7
  Cell:       -3       0       1 atom pairs:        2
  Cell:       -3       1      -1 atom pairs:        1
  Cell:       -3       1       0 atom pairs:        3
  Cell:       -3       1       1 atom pairs:        2
  Cell:       -2      -2      -1 atom pairs:        4
  Cell:       -2      -2       0 atom pairs:       10
  Cell:       -2      -2       1 atom pairs:        2
  Cell:       -2      -1      -2 atom pairs:        1
  Cell:       -2      -1      -1 atom pairs:       11
  Cell:       -2      -1       0 atom pairs:       16
  Cell:       -2      -1       1 atom pairs:       12
  Cell:       -2       0      -2 atom pairs:        1
  Cell:       -2       0      -1 atom pairs:       12
  Cell:       -2       0       0 atom pairs:       16
  Cell:       -2       0       1 atom pairs:       12
  Cell:       -2       0       2 atom pairs:        1
  Cell:       -2       1      -1 atom pairs:       11
  Cell:       -2       1       0 atom pairs:       15
  Cell:       -2       1       1 atom pairs:       11
  Cell:       -2       1       2 atom pairs:        1
  Cell:       -2       2      -1 atom pairs:        2
  Cell:       -2       2       0 atom pairs:       11
  Cell:       -2       2       1 atom pairs:        5
  Cell:       -1      -3      -1 atom pairs:        2
  Cell:       -1      -3       0 atom pairs:        2
  Cell:       -1      -2      -2 atom pairs:        1
  Cell:       -1      -2      -1 atom pairs:       11
  Cell:       -1      -2       0 atom pairs:       16
  Cell:       -1      -2       1 atom pairs:       12
  Cell:       -1      -1      -2 atom pairs:        2
  Cell:       -1      -1      -1 atom pairs:       14
  Cell:       -1      -1       0 atom pairs:       16
  Cell:       -1      -1       1 atom pairs:       14
  Cell:       -1      -1       2 atom pairs:        2
  Cell:       -1       0      -2 atom pairs:        2
  Cell:       -1       0      -1 atom pairs:       15
  Cell:       -1       0       0 atom pairs:       16
  Cell:       -1       0       1 atom pairs:       14
  Cell:       -1       0       2 atom pairs:        3
  Cell:       -1       1      -2 atom pairs:        2
  Cell:       -1       1      -1 atom pairs:       15
  Cell:       -1       1       0 atom pairs:       16
  Cell:       -1       1       1 atom pairs:       14
  Cell:       -1       1       2 atom pairs:        3
  Cell:       -1       2      -1 atom pairs:       11
  Cell:       -1       2       0 atom pairs:       15
  Cell:       -1       2       1 atom pairs:       11
  Cell:       -1       2       2 atom pairs:        1
  Cell:       -1       3       0 atom pairs:        3
  Cell:       -1       3       1 atom pairs:        3
  Cell:        0      -3      -1 atom pairs:        3
  Cell:        0      -3       0 atom pairs:        7
  Cell:        0      -2      -2 atom pairs:        1
  Cell:        0      -2      -1 atom pairs:       12
  Cell:        0      -2       0 atom pairs:       16
  Cell:        0      -2       1 atom pairs:       13
  Cell:        0      -1      -2 atom pairs:        3
  Cell:        0      -1      -1 atom pairs:       14
  Cell:        0      -1       0 atom pairs:       16
  Cell:        0      -1       1 atom pairs:       15
  Cell:        0      -1       2 atom pairs:        2
  Cell:        0       0      -2 atom pairs:        3
  Cell:        0       0      -1 atom pairs:       15
  Cell:        0       0       0 atom pairs:       16
  Cell:        0       0       1 atom pairs:       15
  Cell:        0       0       2 atom pairs:        3
  Cell:        0       1      -2 atom pairs:        2
  Cell:        0       1      -1 atom pairs:       15
  Cell:        0       1       0 atom pairs:       16
  Cell:        0       1       1 atom pairs:       14
  Cell:        0       1       2 atom pairs:        3
  Cell:        0       2      -1 atom pairs:       13
  Cell:        0       2       0 atom pairs:       16
  Cell:        0       2       1 atom pairs:       12
  Cell:        0       2       2 atom pairs:        1
  Cell:        0       3       0 atom pairs:        7
  Cell:        0       3       1 atom pairs:        3
  Cell:        1      -3      -1 atom pairs:        3
  Cell:        1      -3       0 atom pairs:        3
  Cell:        1      -2      -2 atom pairs:        1
  Cell:        1      -2      -1 atom pairs:       11
  Cell:        1      -2       0 atom pairs:       15
  Cell:        1      -2       1 atom pairs:       11
  Cell:        1      -1      -2 atom pairs:        3
  Cell:        1      -1      -1 atom pairs:       14
  Cell:        1      -1       0 atom pairs:       16
  Cell:        1      -1       1 atom pairs:       15
  Cell:        1      -1       2 atom pairs:        2
  Cell:        1       0      -2 atom pairs:        3
  Cell:        1       0      -1 atom pairs:       14
  Cell:        1       0       0 atom pairs:       16
  Cell:        1       0       1 atom pairs:       15
  Cell:        1       0       2 atom pairs:        2
  Cell:        1       1      -2 atom pairs:        2
  Cell:        1       1      -1 atom pairs:       14
  Cell:        1       1       0 atom pairs:       16
  Cell:        1       1       1 atom pairs:       14
  Cell:        1       1       2 atom pairs:        2
  Cell:        1       2      -1 atom pairs:       12
  Cell:        1       2       0 atom pairs:       16
  Cell:        1       2       1 atom pairs:       11
  Cell:        1       2       2 atom pairs:        1
  Cell:        1       3       0 atom pairs:        2
  Cell:        1       3       1 atom pairs:        2
  Cell:        2      -2      -1 atom pairs:        5
  Cell:        2      -2       0 atom pairs:       11
  Cell:        2      -2       1 atom pairs:        2
  Cell:        2      -1      -2 atom pairs:        1
  Cell:        2      -1      -1 atom pairs:       11
  Cell:        2      -1       0 atom pairs:       15
  Cell:        2      -1       1 atom pairs:       11
  Cell:        2       0      -2 atom pairs:        1
  Cell:        2       0      -1 atom pairs:       12
  Cell:        2       0       0 atom pairs:       16
  Cell:        2       0       1 atom pairs:       12
  Cell:        2       0       2 atom pairs:        1
  Cell:        2       1      -1 atom pairs:       12
  Cell:        2       1       0 atom pairs:       16
  Cell:        2       1       1 atom pairs:       11
  Cell:        2       1       2 atom pairs:        1
  Cell:        2       2      -1 atom pairs:        2
  Cell:        2       2       0 atom pairs:       10
  Cell:        2       2       1 atom pairs:        4
  Cell:        3      -1      -1 atom pairs:        2
  Cell:        3      -1       0 atom pairs:        3
  Cell:        3      -1       1 atom pairs:        1
  Cell:        3       0      -1 atom pairs:        2
  Cell:        3       0       0 atom pairs:        7
  Cell:        3       0       1 atom pairs:        1
  Cell:        3       1      -1 atom pairs:        1
  Cell:        3       1       0 atom pairs:        2
  Cell:        3       1       1 atom pairs:        1
  sparsity of pfbvk:   1.000000
  Number of atoms pairs in BvK cells:         1076
  Max. memory consumption per node for Pulay mixing [GB]:      5.20
  Minimal total memory per node [GB]:    131.90
  Minimal free memory per node [GB]:    117.74
  --- Initializing LVL triples, type HSE
  | Storage requirements for basis-basbas products (processor-local):
  |   Species Pt: n_prodsfn:  2712; storage:       84.75 MiB.
  |   Species O: n_prodsfn:   211; storage:        6.59 MiB.

  --- Initializing Coulomb matrix calculations, type HSE
  Preparing TB like auxiliary 2-center HSE-pot matrix
  SBT integration errors (all should be 'small'):
  large logFT aliasing -> increase N/lnrange
  large SBT aliasing -> decrease lnk0 & increase lnk0+lnrange
  large SBT ringing -> decrease lnr0 & increase lnr0+lnrange
  |            El't  L: logFT-al.   small-k   large-k   small-r   large-r
  | Need to store 13335 splines of   292 points taking      30632 KiB.
  | Spline reduction from  4096 to   292 points by (cutting and)     1 x coarsening gives error:  0.00E+00
  | Maximum value outside interaction range:  2.91E-13
  Finished with initialize_tb_auxmat/lvl_triples, time:        1.182
  --- Calculating Coulomb matrices
  Upper limit for memory consumption per node [GB] for Coulomb matrices if no compression occurs:       0.028
  Upper limit for temporary arrays in Coulomb matrix initalization [GB]:      2.40
  Min./max. time for Coulomb matrix computation [s]:    856.19   1507.95
  Max. memory consumption per node for global Coulomb matrix [GB]:      1.74
  Time to calculate Coulomb Matrices   :     1508.125
  Max. memory consumption per node for uncompressed ovlp3fn matrix [GB]:       4.084
  --- Calculating OVLP3FN
  --- Done calculating OVLP3FN, time:       77.561
  Max. memory consumption per node for compressed global ovlp3fn matrix [GB]:       1.206
  Atomic logSBT for 2-center HSE-pot matrix    :  max(cpu_time)    wall_clock(cpu1)
  | TB initialization                           :        0.725 s           0.725 s
  | TB usage                                    :      236.072 s         236.198 s

  Atomic logSBT for LVL-triples                :  max(cpu_time)    wall_clock(cpu1)
  | Multiplication with kernel                  :        0.297 s           0.092 s
  | Main matrix multiplication                  :       19.596 s          17.888 s
  | Analytic angular integration                :        0.469 s           0.118 s
  | Kernel construction                         :        0.396 s           0.077 s
  | Overall 2-center overlap time               :       22.362 s          20.663 s
  | 3-center preparation multiplications        :        0.412 s           0.396 s
  | 3-center preparation SBTs                   :        9.540 s           9.382 s
  | 3-center combinations                       :       37.731 s          37.006 s
  | Overal 3-center time                        :       47.186 s          46.789 s
  | LVL initialization                          :        0.454 s           0.455 s
  | Whole LVL-triples                           :        0.454 s           0.455 s

  Assumed free memory per node for Fock matrix prefactors [GB]    104.55
  Memory per instance for Coulomb / ovlp matrix [GB]      1.74      1.21
  Number of nodes, tasks per node     1     8
  Number of instances:    2
  -----------------------------------------------------
  Dividing atoms among tasks for exact exchange energy:
  Atom:     1 Weight:  0.24336E+09
  Atom:     2 Weight:  0.24336E+09
  Atom:     3 Weight:  0.11914E+08
  Atom:     4 Weight:  0.11914E+08

  Average weight per task:  0.12764E+09

  Number of "big" (above average) atoms  :     2
  Number of "small" (below average) atoms:     2

  There are "big" and "small" atoms
  Reserving    2 tasks for "big" atoms
  Max. weight for big atoms:  0.24336E+09 small atoms:  0.11914E+08
  Trying 3 tasks for "big" atoms:
  Max. weight for big atoms:  0.24336E+09 small atoms:  0.23829E+08
  => Atom 1 gets 2 tasks
  Using 1 tasks for "small" atoms, 3 for "big" atoms

  Atom division among tasks:
  Atom     1: (initial) task:     0, # of tasks:     2
  Atom     2: (initial) task:     2, # of tasks:     1
  Atom     3: (initial) task:     3, # of tasks:     1
  Atom     4: (initial) task:     3, # of tasks:     1

  -----------------------------------------------------
  Task      0: my_n_atoms2:      1 my_atom_list:      1
  Task      1: my_n_atoms2:      1 my_atom_list:      1
  Task      2: my_n_atoms2:      1 my_atom_list:      2
  Task      3: my_n_atoms2:      2 my_atom_list:      3     4
  Task      0: my_n_atoms2:      1 my_atom_list:      1
  Task      1: my_n_atoms2:      1 my_atom_list:      1
  Task      2: my_n_atoms2:      1 my_atom_list:      2
  Task      3: my_n_atoms2:      2 my_atom_list:      3     4
  Task      0: my_n_atom_pairs:    131
  Task      1: my_n_atom_pairs:    132
  Task      2: my_n_atom_pairs:    263
  Task      3: my_n_atom_pairs:    550
  Task      0: my_n_atom_pairs:    131
  Task      1: my_n_atom_pairs:    132
  Task      2: my_n_atom_pairs:    263
  Task      3: my_n_atom_pairs:    550
  Transferring Coulomb matrix to final data layout
  Coulomb matrix communicaton time [s]    0.42
  Max. memory per node for ovlp3fn matrices:        2.410 GB
  Total memory for ovlp3fn matrices:        1.205 GB
  --- Done getting norm of OVLP3FN, time:        0.041
  Sparsity of ovlp3fn matrix     804    1076
  --- time for get_ovlp3fn:        0.371
  Max. memory consumption per node for Hartree Fock matrix [GB]      5.20
  Blocksize for Fock matrix computation:     4
  Minimal free memory per node after Fock matrix initialization [GB]:    110.41
  Initialize hartree_potential_storage
  Max. number of atoms included in rho_multipole:            4

  End scf initialization - timings             :  max(cpu_time)    wall_clock(cpu1)
  | Time for scf. initialization                :     1594.789 s        1594.906 s
  | Boundary condition initialization           :        0.209 s           0.211 s
  | Integration                                 :        1.159 s           1.194 s
  | Solution of K.-S. eqns.                     :        2.776 s           2.820 s
  | Grid partitioning                           :        0.046 s           0.057 s
  | Preloading free-atom quantities on grid     :        0.365 s           0.367 s
  | Free-atom superposition energy              :        0.035 s           0.036 s
  | Total energy evaluation                     :        0.007 s           0.009 s
  | Product basis setup: Total time             :     1590.397 s        1590.402 s

  Partial memory accounting:
  | Current value for overall tracked memory usage:
  |   Minimum:      112.289 MB (on task 3)
  |   Maximum:      595.138 MB (on task 2)
  |   Average:      337.564 MB
  | Peak value for overall tracked memory usage:
  |   Minimum:      238.148 MB (on task 7 after allocating aux_mat)
  |   Maximum:     1293.271 MB (on task 0 after allocating aux_mat)
  |   Average:     1002.199 MB
  | Largest tracked array allocation so far:
  |   Minimum:      190.480 MB (aux_mat on task 7)
  |   Maximum:      622.740 MB (aux_mat on task 0)
  |   Average:      555.896 MB
  Note:  These values currently only include a subset of arrays which are explicitly tracked.
  The "true" memory usage will be greater.
------------------------------------------------------------
  Evaluating new KS density using the density matrix
  Evaluating density matrix
  Time summed over all CPUs for getting density from density matrix: real work       10.642 s, elapsed       10.826 s
  Integration grid: deviation in total charge (<rho> - N_e) =   2.769127E-10

  Time for density update prior                :  max(cpu_time)    wall_clock(cpu1)
  | self-consistency iterative process          :        1.699 s           1.700 s

[...]
------------------------------------------------------------
  Pulay mixing of updated and previous charge densities.
  Renormalizing the density to the exact electron count on the 3D integration grid.
  | Formal number of electrons (from input files) :     172.0000000000
  | Integrated number of electrons on 3D grid     :     172.0000000006
  | Charge integration error                      :       0.0000000006
  | Normalization factor for density and gradient :       1.0000000000

  Evaluating partitioned Hartree potential by multipole expansion.
  | Original multipole sum: apparent total charge =   0.113986E-12
  | Sum of charges compensated after spline to logarithmic grids =   0.163511E-04
  | Analytical far-field extrapolation by fixed multipoles:
  | Hartree multipole sum: apparent total charge =   0.113789E-12
  Summing up the Hartree potential.
  Time summed over all CPUs for potential: real work        2.804 s, elapsed        2.832 s
  | RMS charge density error from multipole expansion :   0.173459E-01
  | Average real-space part of the electrostatic potential :      0.03001143 eV

  Integrating Hamiltonian matrix: batch-based integration.
  Time summed over all CPUs for integration: real work        5.323 s, elapsed        5.388 s
  Calculating non-local Hartree-Fock exchange by two-center RI (RI-LVL).
  screening_threshold (crit_val) =  0.000000100000
  Exact exchange progress report - outermost block loop i_block: 1 ..      18
  |        1         2         3         4         5         6         7         8         9        10
  |       11        12        13        14        15        16        17        18  
 Total ovlp3fn data transfer [GB]  0.949381012469530
  Full exact exchange energy:   19606.523515882378 eV.
  Times            DM_x_o3fn   CM_prod_1   CM_prod_2   tmp2_prod        Sync   Imbalance       Other  Total calc
  | Times    0:       40.053      72.064      38.382      64.820      13.747     101.207      12.240     342.514
  | Times    1:       36.901      67.533      38.585      61.838      13.747     111.710      12.200     342.514
  | Times    2:       72.325     118.577      60.614      79.600       0.016       0.017      11.365     342.515
  | Times    3:        8.045      48.553      31.623       6.433       0.016     238.020       9.823     342.514
  | Times    4:       41.181      70.838      33.284      65.091      13.138      94.207      24.775     342.515
  | Times    5:       38.034      66.065      34.120      62.353      13.137     104.019      24.786     342.514
  | Times    6:       74.968     113.853      52.059      77.647       0.018       0.001      23.968     342.515
  | Times    7:        8.258      47.820      27.883       6.682       0.018     229.320      22.533     342.514
  | Times  sum:      319.766     605.303     316.551     424.464      53.837     878.503     141.691    2740.114

  Decomposition of Other based on code block (only on MPI task 0):
  Times             Block #1    Block #2    Block #3    Block #4    Block #5    Block #6    Block #7    Block #8
  | Times    0:        3.871       0.000       0.058       0.090       0.409       0.006       0.126       0.000

  Times             Block #9   Block #10   Block #11   Block #12   Block #13   Block #14   Block #15   Block #16
  | Times    0:        0.118       0.000       0.808       0.431       0.000       4.220       0.015       0.007

  Times            Block Sum    Expected
  | Times    0:       10.159      12.240
 Time for Fock matrix mixing   1.52768814656883     

  Updating Kohn-Sham eigenvalues and eigenvectors using ELSI and the (modified) LAPACK eigensolver.
  Starting LAPACK eigensolver
  Finished Cholesky decomposition
  | Time :     0.001 s
  Finished transformation to standard eigenproblem
  | Time :     0.002 s
  Finished solving standard eigenproblem
  | Time :     0.005 s
  Finished back-transformation of eigenvectors
  | Time :     0.000 s

  Obtaining occupation numbers and electronic chemical potential using ELSI.
  | Note that, for insulating systems, the printed 'chemical potential' value is not uniquely defined.
  | It can be anywhere in the energy gap, as long as it correctly separates occupied and unoccupied states.
  | In systems with a gap, the physically relevant chemical potential is the VBM or HOMO.

  | Chemical potential (Fermi level):    -4.37584922 eV
  What follows are estimated values for band gap, HOMO, LUMO, etc.
  | They are estimated on a discrete k-point grid and not necessarily exact.
  | For converged numbers, create a DOS and/or band structure plot on a denser k-grid.

  Highest occupied state (VBM) at     -5.35091356 eV (relative to internal zero)
  | Occupation number:      2.00000000
  | K-point:    1054 at    0.500000    0.500000    0.000000 (in units of recip. lattice)

  Lowest unoccupied state (CBM) at    -4.34087982 eV (relative to internal zero)
  | Occupation number:      0.00000076
  | K-point:    1054 at    0.500000    0.500000    0.000000 (in units of recip. lattice)

  ESTIMATED overall HOMO-LUMO gap:      1.01003374 eV between HOMO at k-point 1054 and LUMO at k-point 1054
  | This appears to be a direct band gap.
  The gap value is above 0.2 eV. Unless you are using a very sparse k-point grid,
  this system is most likely an insulator or a semiconductor.

  Total energy components:
  | Sum of eigenvalues            :      -24153.45825729 Ha     -657249.03964385 eV
  | XC energy correction          :        -375.54417600 Ha      -10219.07696980 eV
  | XC potential correction       :         725.13048466 Ha       19731.80443069 eV
  | Free-atom electrostatic energy:      -14447.43976256 Ha     -393134.83841963 eV
  | Hartree energy correction     :           7.75910532 Ha         211.13599819 eV
  | Entropy correction            :          -0.00000000 Ha          -0.00000000 eV
  | ---------------------------
  | Total energy                  :      -38243.55260587 Ha    -1040660.01460440 eV
  | Total energy, T -> 0          :      -38243.55260587 Ha    -1040660.01460440 eV  <-- do not rely on this value for anything but (periodic) metals
  | Electronic free energy        :      -38243.55260587 Ha    -1040660.01460440 eV

  Derived energy quantities:
  | Kinetic energy                :       42753.02642868 Ha     1163369.04068938 eV
  | Electrostatic energy          :      -80260.80575907 Ha    -2184007.64578992 eV
  | Energy correction for multipole
  | error in Hartree potential    :           0.02054515 Ha           0.55906186 eV
  | Sum of eigenvalues per atom                           :     -164312.25991096 eV
  | Total energy (T->0) per atom                          :     -260165.00365110 eV  <-- do not rely on this value for anything but (periodic) metals
  | Electronic free energy per atom                       :     -260165.00365110 eV
  Evaluating new KS density using the density matrix
  Evaluating density matrix
  Time summed over all CPUs for getting density from density matrix: real work       10.588 s, elapsed       10.758 s
  Integration grid: deviation in total charge (<rho> - N_e) =   2.769127E-10

  Self-consistency convergence accuracy:
  | Change of charge density      :  0.8616E-01
  | Change of unmixed KS density  :  0.7964E-02
  | Change of sum of eigenvalues  :  0.3555E+02 eV
  | Change of total energy        : -0.5523E+00 eV


------------------------------------------------------------
  End self-consistency iteration #     9       :  max(cpu_time)    wall_clock(cpu1)
  | Time for this iteration                     :      349.363 s         349.360 s
  | Charge density update                       :        1.691 s           1.691 s
  | Density mixing                              :        0.002 s           0.002 s
  | Hartree multipole update                    :        0.002 s           0.001 s
  | Hartree multipole summation                 :        0.362 s           0.362 s
  | Integration                                 :        0.678 s           0.678 s
  | Fock matrix evaluation                      :      344.047 s         344.044 s
  | Solution of K.-S. eqns.                     :        2.571 s           2.572 s
  | Total energy evaluation                     :        0.008 s           0.007 s

  Partial memory accounting:
  | Current value for overall tracked memory usage:
  |   Minimum:      112.289 MB (on task 3)
  |   Maximum:      595.139 MB (on task 2)
  |   Average:      337.564 MB
  | Peak value for overall tracked memory usage:
  |   Minimum:      390.283 MB (on task 7 after allocating tmpx2)
  |   Maximum:     1606.941 MB (on task 2 after allocating tmp2_aux_mem)
  |   Average:     1182.712 MB
  | Largest tracked array allocation so far:
  |   Minimum:      190.480 MB (aux_mat on task 7)
  |   Maximum:      699.759 MB (aux_mat on task 0)
  |   Average:      590.871 MB
  Note:  These values currently only include a subset of arrays which are explicitly tracked.
  The "true" memory usage will be greater.
------------------------------------------------------------

------------------------------------------------------------
          Begin self-consistency iteration #   10

  Date     :  20241202, Time     :  163037.736
------------------------------------------------------------
  Pulay mixing of updated and previous charge densities.
  Renormalizing the density to the exact electron count on the 3D integration grid.
  | Formal number of electrons (from input files) :     172.0000000000
  | Integrated number of electrons on 3D grid     :     172.0000000005
  | Charge integration error                      :       0.0000000005
  | Normalization factor for density and gradient :       1.0000000000

  Evaluating partitioned Hartree potential by multipole expansion.
  | Original multipole sum: apparent total charge =   0.116618E-12
  | Sum of charges compensated after spline to logarithmic grids =   0.182540E-04
  | Analytical far-field extrapolation by fixed multipoles:
  | Hartree multipole sum: apparent total charge =   0.116052E-12
  Summing up the Hartree potential.
  Time summed over all CPUs for potential: real work        2.803 s, elapsed        2.831 s
  | RMS charge density error from multipole expansion :   0.180478E-01
  | Average real-space part of the electrostatic potential :      0.07176591 eV

  Integrating Hamiltonian matrix: batch-based integration.
  Time summed over all CPUs for integration: real work        5.318 s, elapsed        5.374 s
  Calculating non-local Hartree-Fock exchange by two-center RI (RI-LVL).
  screening_threshold (crit_val) =  0.000000100000
  Exact exchange progress report - outermost block loop i_block: 1 ..      18
  |        1         2         3         4         5         6         7         8         9        10
  |       11        12        13        14        15        16        17        18  
 Total ovlp3fn data transfer [GB]  0.949560523033142
  Full exact exchange energy:   19605.730000447926 eV.
  Times            DM_x_o3fn   CM_prod_1   CM_prod_2   tmp2_prod        Sync   Imbalance       Other  Total calc
  | Times    0:       39.430      70.766      37.370      63.670      13.434      99.142      12.179     335.990
  | Times    1:       36.337      66.166      37.603      60.762      13.433     109.553      12.137     335.990
  | Times    2:       71.201     116.357      58.988      78.077       0.016       0.017      11.335     335.991
  | Times    3:        7.943      47.894      31.035       6.368       0.016     232.913       9.821     335.990
  | Times    4:       40.351      69.539      32.278      63.690      12.748      92.589      24.795     335.991
  | Times    5:       37.278      64.707      33.117      61.034      12.748     102.304      24.802     335.990
  | Times    6:       73.514     111.671      50.632      76.118       0.017       0.001      24.039     335.991
  | Times    7:        8.115      47.156      27.306       6.577       0.017     224.209      22.610     335.990
  | Times  sum:      314.168     594.256     308.328     416.297      52.428     860.727     141.718    2687.923

  Decomposition of Other based on code block (only on MPI task 0):
  Times             Block #1    Block #2    Block #3    Block #4    Block #5    Block #6    Block #7    Block #8
  | Times    0:        3.870       0.000       0.058       0.090       0.416       0.006       0.126       0.000

  Times             Block #9   Block #10   Block #11   Block #12   Block #13   Block #14   Block #15   Block #16
  | Times    0:        0.116       0.000       0.793       0.430       0.000       4.219       0.015       0.007

  Times            Block Sum    Expected
  | Times    0:       10.146      12.179
 Time for Fock matrix mixing   1.52763913478702     

  Updating Kohn-Sham eigenvalues and eigenvectors using ELSI and the (modified) LAPACK eigensolver.
  Starting LAPACK eigensolver
  Finished Cholesky decomposition
  | Time :     0.000 s
  Finished transformation to standard eigenproblem
  | Time :     0.001 s
  Finished solving standard eigenproblem
  | Time :     0.005 s
  Finished back-transformation of eigenvectors
  | Time :     0.001 s

  Obtaining occupation numbers and electronic chemical potential using ELSI.
  | Note that, for insulating systems, the printed 'chemical potential' value is not uniquely defined.
  | It can be anywhere in the energy gap, as long as it correctly separates occupied and unoccupied states.
  | In systems with a gap, the physically relevant chemical potential is the VBM or HOMO.

  | Chemical potential (Fermi level):    -4.30899745 eV
  What follows are estimated values for band gap, HOMO, LUMO, etc.
  | They are estimated on a discrete k-point grid and not necessarily exact.
  | For converged numbers, create a DOS and/or band structure plot on a denser k-grid.

  Highest occupied state (VBM) at     -5.34850405 eV (relative to internal zero)
  | Occupation number:      2.00000000
  | K-point:    1054 at    0.500000    0.500000    0.000000 (in units of recip. lattice)

  Lowest unoccupied state (CBM) at    -4.27402798 eV (relative to internal zero)
  | Occupation number:      0.00000076
  | K-point:    1054 at    0.500000    0.500000    0.000000 (in units of recip. lattice)

  ESTIMATED overall HOMO-LUMO gap:      1.07447607 eV between HOMO at k-point 1054 and LUMO at k-point 1054
  | This appears to be a direct band gap.
  The gap value is above 0.2 eV. Unless you are using a very sparse k-point grid,
  this system is most likely an insulator or a semiconductor.

  Total energy components:
  | Sum of eigenvalues            :      -24152.94460644 Ha     -657235.06249306 eV
  | XC energy correction          :        -375.56355357 Ha      -10219.60426043 eV
  | XC potential correction       :         725.16454001 Ha       19732.73112411 eV
  | Free-atom electrostatic energy:      -14447.43976256 Ha     -393134.83841963 eV
  | Hartree energy correction     :           7.22149262 Ha         196.50681230 eV
  | Entropy correction            :          -0.00000000 Ha          -0.00000000 eV
  | ---------------------------
  | Total energy                  :      -38243.56188994 Ha    -1040660.26723671 eV
  | Total energy, T -> 0          :      -38243.56188994 Ha    -1040660.26723671 eV  <-- do not rely on this value for anything but (periodic) metals
  | Electronic free energy        :      -38243.56188994 Ha    -1040660.26723671 eV

  Derived energy quantities:
  | Kinetic energy                :       42753.49811994 Ha     1163381.87606174 eV
  | Electrostatic energy          :      -80261.25395683 Ha    -2184019.84187140 eV
  | Energy correction for multipole
  | error in Hartree potential    :           0.02340775 Ha           0.63695727 eV
  | Sum of eigenvalues per atom                           :     -164308.76562327 eV
  | Total energy (T->0) per atom                          :     -260165.06680918 eV  <-- do not rely on this value for anything but (periodic) metals
  | Electronic free energy per atom                       :     -260165.06680918 eV
  Evaluating new KS density using the density matrix
  Evaluating density matrix
  Time summed over all CPUs for getting density from density matrix: real work       10.572 s, elapsed       10.696 s
  Integration grid: deviation in total charge (<rho> - N_e) =   2.769127E-10

  Self-consistency convergence accuracy:
  | Change of charge density      :  0.2506E-01
  | Change of unmixed KS density  :  0.2908E-01
  | Change of sum of eigenvalues  :  0.1398E+02 eV
  | Change of total energy        : -0.2526E+00 eV


------------------------------------------------------------
  End self-consistency iteration #    10       :  max(cpu_time)    wall_clock(cpu1)
  | Time for this iteration                     :      342.821 s         342.820 s
  | Charge density update                       :        1.683 s           1.684 s
  | Density mixing                              :        0.002 s           0.002 s
  | Hartree multipole update                    :        0.002 s           0.002 s
  | Hartree multipole summation                 :        0.362 s           0.362 s
  | Integration                                 :        0.676 s           0.676 s
  | Fock matrix evaluation                      :      337.522 s         337.520 s
  | Solution of K.-S. eqns.                     :        2.564 s           2.564 s
  | Total energy evaluation                     :        0.008 s           0.007 s

  Partial memory accounting:
  | Current value for overall tracked memory usage:
  |   Minimum:      112.289 MB (on task 3)
  |   Maximum:      595.139 MB (on task 2)
  |   Average:      337.564 MB
  | Peak value for overall tracked memory usage:
  |   Minimum:      390.283 MB (on task 7 after allocating tmpx2)
  |   Maximum:     1606.941 MB (on task 2 after allocating tmp2_aux_mem)
  |   Average:     1182.712 MB
  | Largest tracked array allocation so far:
  |   Minimum:      190.480 MB (aux_mat on task 7)
  |   Maximum:      699.759 MB (aux_mat on task 0)
  |   Average:      590.871 MB
  Note:  These values currently only include a subset of arrays which are explicitly tracked.
  The "true" memory usage will be greater.
------------------------------------------------------------

------------------------------------------------------------
          Begin self-consistency iteration #   11

  Date     :  20241202, Time     :  163620.559
------------------------------------------------------------
  Pulay mixing of updated and previous charge densities.
  Renormalizing the density to the exact electron count on the 3D integration grid.
  | Formal number of electrons (from input files) :     172.0000000000
  | Integrated number of electrons on 3D grid     :     172.0000000001
  | Charge integration error                      :       0.0000000001
  | Normalization factor for density and gradient :       1.0000000000

  Evaluating partitioned Hartree potential by multipole expansion.
  | Original multipole sum: apparent total charge =  -0.231071E-12
  | Sum of charges compensated after spline to logarithmic grids =   0.182869E-04
  | Analytical far-field extrapolation by fixed multipoles:
  | Hartree multipole sum: apparent total charge =  -0.230997E-12
  Summing up the Hartree potential.
  Time summed over all CPUs for potential: real work        2.802 s, elapsed        2.829 s
  | RMS charge density error from multipole expansion :   0.180706E-01
  | Average real-space part of the electrostatic potential :      0.07187981 eV

  Integrating Hamiltonian matrix: batch-based integration.
  Time summed over all CPUs for integration: real work        5.318 s, elapsed        5.406 s
  Calculating non-local Hartree-Fock exchange by two-center RI (RI-LVL).
  screening_threshold (crit_val) =  0.000000100000
  Exact exchange progress report - outermost block loop i_block: 1 ..      18
  |        1         2         3         4         5         6         7         8         9