------------------------------------------------------------
          Invoking FHI-aims ...

          When using FHI-aims, please cite the following reference:

            Volker Blum, Ralf Gehrke, Felix Hanke, Paula Havu,
            Ville Havu, Xinguo Ren, Karsten Reuter, and Matthias Scheffler,
            'Ab Initio Molecular Simulations with Numeric Atom-Centered Orbitals',
            Computer Physics Communications 180, 2175-2196 (2009)

          In addition, many other developments in FHI-aims are likely important for
          your particular application. A partial list of references is given at the end of
          this file. Thank you for giving credit to the authors of these developments.

          For any questions about FHI-aims, please visit our slack channel at

            https://fhi-aims.slack.com

          and our main development and support site at

            https://aims-git.rz-berlin.mpg.de .

          The latter site, in particular, has a wiki to collect information, as well
          as an issue tracker to log discussions, suggest improvements, and report issues
          or bugs. https://aims-git.rz-berlin.mpg.de is also the main development site
          of the project and all new and updated code versions can be obtained there.
          Please send an email to aims-coordinators@fhi-berlin.mpg.de and we will add
          you to these sites. They are for you and everyone is welcome there.

------------------------------------------------------------



  Date     :  20241129, Time     :  071520.624
  Time zero on CPU 1             :   0.190474000000000E+00  s.
  Internal wall clock time zero  :           502096520.624  s.

  FHI-aims created a unique identifier for this run for later identification
  aims_uuid : C6FC1E54-F9D9-4083-A5C7-976F9E87C38C

  Build configuration of the current instance of FHI-aims
  -------------------------------------------------------
  FHI-aims version      : 221103
  Commit number         : GITDIR-NOTFOUND
  CMake host system     : Linux-3.10.0-1160.59.1.el7.x86_64
  CMake version         : 3.17.5
  Fortran compiler      : /home/spack/spack/opt/spack/linux-centos7-broadwell/gcc-8.2.0/intel-oneapi-mpi-2021.13.1-tc3o22m5brhwlepjze7ymovtbug6ollk/mpi/2021.13/bin/mpiifort (Intel) version 20.2.8.20221119
  Fortran compiler flags: -O3 -ip -fp-model precise
  C compiler            : /home/spack/spack/opt/spack/linux-centos7-broadwell/gcc-8.2.0/intel-oneapi-compilers-2023.0.0-qdtyksft5ugoazragh7yusjezd4gp7hm/compiler/2023.0.0/linux/bin/intel64/icc (Intel) version 20.2.8.20221119
  C compiler flags      : -O3 -ip -fp-model precise -std=gnu99
  HIP compiler          :
  HIP compiler flags    :
  HIP GPU arch          :
  Using MPI
  Using ScaLAPACK
  Using LibXC
  Using i-PI
  Using RLSY
  Linking against: /home/spack/spack/opt/spack/linux-centos7-broadwell/gcc-8.2.0/intel-oneapi-mkl-2024.2.1-2ept5lpbp5bastej6jsrfm45y5ab2lpn/mkl/latest/lib/intel64/libmkl_intel_lp64.so
                   /home/spack/spack/opt/spack/linux-centos7-broadwell/gcc-8.2.0/intel-oneapi-mkl-2024.2.1-2ept5lpbp5bastej6jsrfm45y5ab2lpn/mkl/latest/lib/intel64/libmkl_sequential.so
                   /home/spack/spack/opt/spack/linux-centos7-broadwell/gcc-8.2.0/intel-oneapi-mkl-2024.2.1-2ept5lpbp5bastej6jsrfm45y5ab2lpn/mkl/latest/lib/intel64/libmkl_core.so
                   /home/spack/spack/opt/spack/linux-centos7-broadwell/gcc-8.2.0/intel-oneapi-mkl-2024.2.1-2ept5lpbp5bastej6jsrfm45y5ab2lpn/mkl/latest/lib/intel64/libmkl_blacs_intelmpi_lp64.so
                   /home/spack/spack/opt/spack/linux-centos7-broadwell/gcc-8.2.0/intel-oneapi-mkl-2024.2.1-2ept5lpbp5bastej6jsrfm45y5ab2lpn/mkl/latest/lib/intel64/libmkl_scalapack_lp64.so

  Using        1 parallel tasks.
  Task        0 on host f020 reporting.

  Performing system and environment tests:
  | Environment variable OMP_NUM_THREADS correctly set to 1.
  | Checking for ScaLAPACK...
  | Testing pdtran()...
  | All pdtran() tests passed.

  Obtaining array dimensions for all initial allocations:
  
  -----------------------------------------------------------------------
  Parsing control.in (first pass over file, find array dimensions only).
  The contents of control.in will be repeated verbatim below
  unless switched off by setting 'verbatim_writeout .false.' .
  in the first line of control.in .
  -----------------------------------------------------------------------
  
  xc		hse06 0.11
  hse_unit        A
  spin		none
  relativistic	atomic_zora scalar
  charge		0.
  k_grid 		6 6 6
  KS_method parallel
  ################################################################################
  #
  #  FHI-aims code project
  #  VB, Fritz-Haber Institut, 2009
  #
  #  Suggested "light" defaults for Pt atom (to be pasted into control.in file)
  #  Be sure to double-check any results obtained with these settings for post-processing,
  #  e.g., with the "tight" defaults and larger basis sets.
  #
  ################################################################################
    species        Pt
  #     global species definitions
      nucleus             78
      mass                195.084
  #
      l_hartree           4
  #
      cut_pot             3.5  1.5  1.0
      basis_dep_cutoff    1e-4
  #
      radial_base         72 5.0
      radial_multiplier   1
      angular_grids specified
        division   0.4222   50
        division   0.9557  110
        division   1.2477  194
        division   1.5393  302
  #      division   1.9382  434
  #      division   2.0887  590
  #      division   2.1534  770
  #      division   2.2208  974
  #      division   2.6985 1202
  #      outer_grid    974
        outer_grid    302
  ################################################################################
  #
  #  Definition of "minimal" basis
  #
  ################################################################################
  #     valence basis states
      valence      6  s   1.
      valence      5  p   6.
      valence      5  d   9.
      valence      4  f  14.
  #     ion occupancy
      ion_occ     6  s   0.
      ion_occ     5  p   6.
      ion_occ     5  d   8.
      ion_occ     4  f   14.
  ################################################################################
  #
  #  Suggested additional basis functions. For production calculations,
  #  uncomment them one after another (the most important basis functions are
  #  listed first).
  #
  #  Constructed for dimers: 2.00, 2.275, 2.75, 3.75 AA
  #
  ################################################################################
  #  "First tier" - max. impr. -193.66  meV, min. impr. -18.25 meV
       hydro 4 f 7.4
       ionic 6 p auto
  #     hydro 5 g 9.8
       ionic 6 s auto
       hydro 3 d 2.6
  #  "Second tier" - max. impr. -10.25  meV, min. impr. -0.56 meV
  #     hydro 6 h 14
  #     hydro 5 f 14
  #     hydro 4 d 4
  #     hydro 3 p 3.3
  #     hydro 5 g 16.4
  #     hydro 1 s 0.5
  #  "Third tier" - max. impr. -0.72  meV, min. impr. -0.18 meV
  #     hydro 5 f 9
  #     ionic 5 d auto
  #     hydro 6 h 16.4
  #     hydro 5 g 12.4
  #     hydro 5 g 34
  #     hydro 5 s 13.6
  #     hydro 5 p 10.4
  #  Further functions: ################################################################################
  #
  #  FHI-aims code project
  #  VB, Fritz-Haber Institut, 2009
  #
  #  Suggested "light" defaults for O atom (to be pasted into control.in file)
  #  Be sure to double-check any results obtained with these settings for post-processing,
  #  e.g., with the "tight" defaults and larger basis sets.
  #
  ################################################################################
    species        O
  #     global species definitions
      nucleus             8
      mass                15.9994
  #
      l_hartree           4
  #
      cut_pot             3.5  1.5  1.0
      basis_dep_cutoff    1e-4
  #
      radial_base         36 5.0
      radial_multiplier   1
       angular_grids specified
        division   0.2659   50
        division   0.4451  110
        division   0.6052  194
        division   0.7543  302
  #      division   0.8014  434
  #      division   0.8507  590
  #      division   0.8762  770
  #      division   0.9023  974
  #      division   1.2339 1202
  #      outer_grid 974
        outer_grid 302
  ################################################################################
  #
  #  Definition of "minimal" basis
  #
  ################################################################################
  #     valence basis states
      valence      2  s   2.
      valence      2  p   4.
  #     ion occupancy
      ion_occ      2  s   1.
      ion_occ      2  p   3.
  ################################################################################
  #
  #  Suggested additional basis functions. For production calculations,
  #  uncomment them one after another (the most important basis functions are
  #  listed first).
  #
  #  Constructed for dimers: 1.0 A, 1.208 A, 1.5 A, 2.0 A, 3.0 A
  #
  ################################################################################
  #  "First tier" - improvements: -699.05 meV to -159.38 meV
       hydro 2 p 1.8
       hydro 3 d 7.6
       hydro 3 s 6.4
  #  "Second tier" - improvements: -49.91 meV to -5.39 meV
  #     hydro 4 f 11.6
  #     hydro 3 p 6.2
  #     hydro 3 d 5.6
  #     hydro 5 g 17.6
  #     hydro 1 s 0.75
  #  "Third tier" - improvements: -2.83 meV to -0.50 meV
  #     ionic 2 p auto
  #     hydro 4 f 10.8
  #     hydro 4 d 4.7
  #     hydro 2 s 6.8
  #  "Fourth tier" - improvements: -0.40 meV to -0.12 meV
  #     hydro 3 p 5
  #     hydro 3 s 3.3
  #     hydro 5 g 15.6
  #     hydro 4 f 17.6
  #     hydro 4 d 14
  # Further basis functions - -0.08 meV and below
  #     hydro 3 s 2.1
  #     hydro 4 d 11.6
  #     hydro 3 p 16
  #     hydro 2 s 17.2
  
  -----------------------------------------------------------------------
  Completed first pass over input file control.in .
  -----------------------------------------------------------------------
  
  
  -----------------------------------------------------------------------
  Parsing geometry.in (first pass over file, find array dimensions only).
  The contents of geometry.in will be repeated verbatim below
  unless switched off by setting 'verbatim_writeout .false.' .
  in the first line of geometry.in .
  -----------------------------------------------------------------------
  
  lattice_vector 3.1586040000000000 0.0000000000000000 0.0000000000000000
  lattice_vector 0.0000000000000000 3.1586040000000000 0.0000000000000000
  lattice_vector 0.0000000000000000 0.0000000000000000 5.3588940000000003
  
  atom 0.0000000000000000 1.5793020000000000 2.6794470000000001 Pt
  atom 1.5793020000000000 0.0000000000000000 0.0000000000000000 Pt
  atom 0.0000000000000000 0.0000000000000000 1.3397235000000001 O
  atom 0.0000000000000000 0.0000000000000000 4.0191705000000004 O
  
  -----------------------------------------------------------------------
  Completed first pass over input file geometry.in .
  -----------------------------------------------------------------------
  

  Basic array size parameters:
  | Number of species                 :        2
  | Number of atoms                   :        4
  | Number of lattice vectors         :        3
  | Max. basis fn. angular momentum   :        3
  | Max. atomic/ionic basis occupied n:        6
  | Max. number of basis fn. types    :        3
  | Max. radial fns per species/type  :       14
  | Max. logarithmic grid size        :     1487
  | Max. radial integration grid size :       72
  | Max. angular integration grid size:      302
  | Max. angular grid division number :        8
  | Radial grid for Hartree potential :     1487
  | Number of spin channels           :        1

------------------------------------------------------------
          Reading file control.in.
------------------------------------------------------------

  XC: Using HSE-functional with OMEGA =  0.110000E+00 <units>.
  XC: For the actual units (bohr^-1 or Angstrom^-1), see below.
  hse_unit: Unit for the HSE06 hybrid functional screening parameter set to A^(-1).
  Spin treatment: No spin polarisation.
  Scalar relativistic treatment of kinetic energy: on-site free-atom approximation to ZORA.
  Charge =   0.000000E+00: Neutral system requested explicitly.
  Found k-point grid:         6         6         6
  Kohn-Sham electronic structure solved by the ELSI library.
 
  Reading configuration options for species Pt                  .
  | Found nuclear charge :  78.0000
  | Found atomic mass :    195.084000000000      amu
  | Found l_max for Hartree potential  :   4
  | Found cutoff potl. onset [A], width [A], scale factor :    3.50000    1.50000    1.00000
  | Threshold for basis-dependent cutoff potential is   0.100000E-03
  | Found data for basic radial integration grid :    72 points, outermost radius =    5.000 A
  | Found multiplier for basic radial grid :   1
  | Found angular grid specification: user-specified.
  | Specified grid contains     5 separate shells.
  | Check grid settings after all constraints further below.
  | Found free-atom valence shell :  6 s   1.000
  | Found free-atom valence shell :  5 p   6.000
  | Found free-atom valence shell :  5 d   9.000
  | Found free-atom valence shell :  4 f  14.000
  | Found free-ion valence shell :  6 s   0.000
  | Found free-ion valence shell :  5 p   6.000
  | Found free-ion valence shell :  5 d   8.000
  | Found free-ion valence shell :  4 f  14.000
  | Found hydrogenic basis function :  4 f   7.400
  | Found ionic basis function :  6 p , default cutoff radius.
  | Found ionic basis function :  6 s , default cutoff radius.
  | Found hydrogenic basis function :  3 d   2.600
  Species Pt                  : Missing cutoff potential type.
  Defaulting to exp(1/x)/(1-x)^2 type cutoff potential.
  Species Pt: No 'logarithmic' tag. Using default grid for free atom:
  | Default logarithmic grid data [bohr] : 0.1000E-03 0.1000E+03 0.1012E+01
  | Will include ionic basis functions of  2.0-fold positive Pt                   ion.
  Species Pt: On-site basis accuracy parameter (for Gram-Schmidt orthonormalisation) not specified.
  Using default value basis_acc =  0.1000000E-03.
  Species Pt                  : Using default innermost maximum threshold i_radial=  2 for radial functions.
  Species Pt                  : Default cutoff onset for free atom density etc. : 0.35000000E+01 AA.
  Species Pt                  : Basic radial grid will be enhanced according to radial_multiplier =   1, to contain    72 grid points.
 
  Reading configuration options for species O                   .
  | Found nuclear charge :   8.0000
  | Found atomic mass :    15.9994000000000      amu
  | Found l_max for Hartree potential  :   4
  | Found cutoff potl. onset [A], width [A], scale factor :    3.50000    1.50000    1.00000
  | Threshold for basis-dependent cutoff potential is   0.100000E-03
  | Found data for basic radial integration grid :    36 points, outermost radius =    5.000 A
  | Found multiplier for basic radial grid :   1
  | Found angular grid specification: user-specified.
  | Specified grid contains     5 separate shells.
  | Check grid settings after all constraints further below.
  | Found free-atom valence shell :  2 s   2.000
  | Found free-atom valence shell :  2 p   4.000
  | Found free-ion valence shell :  2 s   1.000
  | Found free-ion valence shell :  2 p   3.000
  | Found hydrogenic basis function :  2 p   1.800
  | Found hydrogenic basis function :  3 d   7.600
  | Found hydrogenic basis function :  3 s   6.400
  Species O                   : Missing cutoff potential type.
  Defaulting to exp(1/x)/(1-x)^2 type cutoff potential.
  Species O : No 'logarithmic' tag. Using default grid for free atom:
  | Default logarithmic grid data [bohr] : 0.1000E-03 0.1000E+03 0.1012E+01
  Species O : On-site basis accuracy parameter (for Gram-Schmidt orthonormalisation) not specified.
  Using default value basis_acc =  0.1000000E-03.
  Species O                   : Using default innermost maximum threshold i_radial=  2 for radial functions.
  Species O                   : Default cutoff onset for free atom density etc. : 0.35000000E+01 AA.
  Species O                   : Basic radial grid will be enhanced according to radial_multiplier =   1, to contain    36 grid points.
 
  Finished reading input file 'control.in'.
 
------------------------------------------------------------


------------------------------------------------------------
          Reading geometry description geometry.in.
------------------------------------------------------------
  | The smallest distance between any two atoms is         2.07100311 AA.
  | The first atom of this pair is atom number                      1 .
  | The second atom of this pair is atom number                     4 .
  | Wigner-Seitz cell of the first atom image           0     0     0 .
  | (The Wigner-Seitz cell of the second atom is 0 0 0  by definition.)

  Symmetry information by spglib:
  | Precision set to  0.1E-04
  | Number of Operations  : 16
  | Space group           : 131
  | International         : P4_2/mmc
  | Schoenflies           : D4h^9
  Input structure read successfully.
  The structure contains        4 atoms,  and a total of        172.000 electrons.

  Input geometry:
  | Unit cell:
  |        3.15860400        0.00000000        0.00000000
  |        0.00000000        3.15860400        0.00000000
  |        0.00000000        0.00000000        5.35889400
  | Atomic structure:
  |       Atom                x [A]            y [A]            z [A]
  |    1: Species Pt            0.00000000        1.57930200        2.67944700
  |    2: Species Pt            1.57930200        0.00000000        0.00000000
  |    3: Species O             0.00000000        0.00000000        1.33972350
  |    4: Species O             0.00000000        0.00000000        4.01917050

  Lattice parameters for 3D lattice (in Angstroms) :     3.158604    3.158604    5.358894
  Angle(s) between unit vectors (in degrees)       :    90.000000   90.000000   90.000000


  Quantities derived from the lattice vectors (in Angstrom^-1):
  | Reciprocal lattice vector 1:  1.989229  0.000000  0.000000
  | Reciprocal lattice vector 2:  0.000000  1.989229  0.000000
  | Reciprocal lattice vector 3:  0.000000  0.000000  1.172478
  | Unit cell volume                               :   0.534645E+02  Angstrom^3

  Fractional coordinates:
                         L1                L2                L3
       atom_frac         0.00000000        0.50000000        0.50000000  Pt
       atom_frac         0.50000000        0.00000000        0.00000000  Pt
       atom_frac         0.00000000        0.00000000        0.25000000  O
       atom_frac         0.00000000        0.00000000        0.75000000  O

 
  Finished reading input file 'geometry.in'.
 

 
  Consistency checks for stacksize environment parameter are next.
 
  | Maximum stacksize for task 0: unlimited
  | Current stacksize for task 0: unlimited
 
  Consistency checks for the contents of control.in are next.
 
  HSE06 functional: Converting omega to        0.05820949 bohr^-1.
  HSE06 screening parameters: omega_HF  =      0.05820949 bohr^-1, and
                              omega_PBE =      0.05820949 bohr^-1.
  MPI_IN_PLACE appears to work with this MPI implementation.
  | Keeping use_mpi_in_place .true. (see manual).
  Explicit treatment of the Coulomb operator is needed, but the RI method is not specified.
  Coulomb operator: Defaulting to 'LVL fast' resolution of identity - RI_type = LVL_fast
  Species Pt: Using default value for prodbas_acc =   1.000000E-04.
  Species Pt: Using default value max_l_prodbas =    20.
  Species O: Using default value for prodbas_acc =   1.000000E-04.
  Species O: Using default value max_l_prodbas =    20.
  Target number of points in a grid batch is not set. Defaulting to  100
  Method for grid partitioning is not set. Defaulting to parallel hash+maxmin partitioning.
  Batch size limit is not set. Defaulting to    200
  By default, will store active basis functions for each batch.
  If in need of memory, prune_basis_once .false. can be used to disable this option.
  communication_type for Hartree potential was not specified.
  Defaulting to calc_hartree .
  Defaulting to Pulay charge density mixer.
  Pulay mixer: Number of relevant iterations not set.
  Defaulting to    8 iterations.
  Pulay mixer: Number of initial linear mixing iterations not set.
  Defaulting to    0 iterations.
  Work space size for distributed Hartree potential not set.
  Defaulting to   0.200000E+03 MB.
  Mixing parameter for charge density mixing has not been set.
  Using default: charge_mix_param =     0.0500.
  The mixing parameter will be adjusted in iteration number     2 of the first full s.c.f. cycle only.
  Algorithm-dependent basis array size parameters:
  | n_max_pulay                         :        8
  Maximum number of self-consistency iterations not provided.
  Presetting  1000 iterations.
  Presetting      1001 iterations before the initial mixing cycle
  is restarted anyway using the sc_init_iter criterion / keyword.
  Presetting a factor      1.000 between actual scf density residual
  and density convergence criterion sc_accuracy_rho below which sc_init_iter
  takes no effect.
 * No s.c.f. convergence criteria (sc_accuracy_*) were provided in control.in.
 * The run will proceed with a reasonable default guess, but please check whether.
 * the s.c.f. cycles seem to take too much or too little time.
  Calculation of forces was not defined in control.in. No forces will be calculated.
  Geometry relaxation not requested: no relaxation will be performed.
 * Notice: The s.c.f. convergence criterion sc_accuracy_rho was not provided.
 * We used to stop in this case, and ask the user to provide reasonable
 * scf convergence criteria. However, this led some users to employ criteria
 * that led to extremely long run times, e.g., for simple relaxation.
 * We now preset a default value for sc_accuracy_rho if it is not set.
 * You may still wish to check if this setting is too tight or too loose for your needs.
 * Based on n_atoms and forces and force-correction status, FHI-aims chose sc_accuracy_rho =  0.800000E-05 .
  No accuracy limit for integral partition fn. given. Defaulting to  0.1000E-14.
  No threshold value for u(r) in integrations given. Defaulting to  0.1000E-05.
  No occupation type (smearing scheme) given. Defaulting to Gaussian broadening, width =  0.1000E-01 eV.
  The width will be adjusted in iteration number     2 of the first full s.c.f. cycle only.
  S.C.F. convergence parameters will be adjusted in iteration number     2 of the first full s.c.f. cycle only.
  No accuracy for occupation numbers given. Defaulting to  0.1000E-12.
  No threshold value for occupation numbers given. Defaulting to  0.0000E+00.
  No accuracy for fermi level given. Defaulting to  0.1000E-19.
  Maximum # of iterations to find E_F not set. Defaulting to  200.
 * You have   216 k-points in your system, but only     1 MPI-tasks available.
 * In this case using ScaLAPACK is not necessary / supported.
 * Switching to LAPACK (via ELSI) instead.
  Will not use alltoall communication since running on < 1024 CPUs.
  Threshold for basis singularities not set.
  Default threshold for basis singularities:  0.1000E-04
  partition_type (choice of integration weights) for integrals was not specified.
  | Using a version of the partition function of Stratmann and coworkers ('stratmann_sparse').
  | At each grid point, the set of atoms used to build the partition table is smoothly restricted to
  | only those atoms whose free-atom density would be non-zero at that grid point.
  Partitioning for Hartree potential was not defined. Using partition_type for integrals.
  | Adjusted default value of keyword multip_moments_threshold to:       0.10000000E-11
  | This value may affect high angular momentum components of the Hartree potential in periodic systems.
  Threshold for auxiliary basis singularities not set.
  Default threshold for auxiliary basis singularities:  0.1000E-04
  No q(lm)/r^(l+1) cutoff set for long-range Hartree potential.
  | Using default value of  0.100000E-09 .
  | Verify using the multipole_threshold keyword.
  Defaulting to new monopole extrapolation.
  Density update method: automatic selection selected.
  Using density matrix based charge density update.
  Using density matrix based charge density update.
  Using packed matrix style: index .
 * NOTE: You are attempting to run a periodic structure with an exchange treatment
 * which requires a two-electron Coulomb operator (Hartree-Fock or a hybrid functional).
 * The present implementation is reliable to our knowledge, but some things
 * (like band structure output, or perhaps the auxilary basis set for small
 * orbital basis sets - see the "for_aux" keyword) require extra care.
 * Please let us know if you encounter any trouble.
  Coulomb operator: Defaulting to screening threshold for four-center integrals:   0.100000E-06
  Coulomb operator: Defaulting to screening threshold for Coulomb matrix:   0.100000E-09
  Fock matrix calculation: Setting the screening threshold for overlap matrix to coul_mat_threshold:   0.100000E-09
  Coulomb operator: Defaulting to 'LVL_fast' resolution of identity - RI_type = LVL_fast 
  No other resolution of identity version is supported for periodic boundary conditions at present.
  Coulomb operator: Defaulting to logarithmic spherical Bessel transform integrals (use_logsbt .true.).
  HSE with LVL_fast: Also defaulting to logarithmic spherical Bessel transform integrals.
  Defaulting to use time-reversal symmetry for k-point grid.
  Charge integration errors on the 3D integration grid will be compensated
  by explicit normalization and distribution of residual charges.
  Use the "compensate_multipole_errors" flag to change this behaviour.
  LVL not implemented with density matrix yet
  -> switching to transformed overlap
  LVL probably works better with logsbt
  Default to 1D ("use_logsbt") integrations for auxiliary 2-center integrals.
  Default onset of logarithmic r-grid for SBT is -38.000000000000
  Default onset of logarithmic k-grid for SBT is -25.000000000000
  Default range of logarithmic r- and k-grid for SBT is  45.000000000000
  Default number of logarithmic r- and k-grid for SBT is   4096
  * Use logSBT for radial HSE integration, too
  Set 'collect_eigenvectors' to be '.true.' for all serial calculations. This is mandatory.
  Set 'collect_eigenvectors' to be '.true.' for KS_method lapack_fast and serial.
 
  Consistency checks for the contents of geometry.in are next.
 

  Range separation radius for Ewald summation (hartree_convergence_parameter):      3.34000856 bohr.
  Number of empty states per atom not set in control.in - providing a guess from actual geometry.
  | Total number of empty states used during s.c.f. cycle:       24
  If you use a very high smearing, use empty_states (per atom!) in control.in to increase this value.

  Structure-dependent array size parameters: 
  | Maximum number of distinct radial functions  :       24
  | Maximum number of basis functions            :      140
  | Number of Kohn-Sham states (occupied + empty):      110
------------------------------------------------------------
  Setting Coulomb cut-width to  1.091868692359 * rcut.
  Setting Coulomb cutting radius rcut to  9.475812000000 A.

------------------------------------------------------------
          Preparing all fixed parts of the calculation.
------------------------------------------------------------
  Determining machine precision:
    2.225073858507201E-308
  Setting up grids for atomic and cluster calculations.

  Creating wave function, potential, and density for free atoms.
  Runtime choices for atomic solver:
  | atomic solver xc        : PBE
  | compute density gradient: 1
  | compute kinetic density : F

  Species: Pt

  List of occupied orbitals and eigenvalues:
    n    l              occ      energy [Ha]    energy [eV]
    1    0           2.0000     -3153.099128    -85800.1927
    2    0           2.0000      -515.585619    -14029.7985
    3    0           2.0000      -119.497959     -3251.7049
    4    0           2.0000       -25.565949      -695.6849
    5    0           2.0000        -3.732860      -101.5763
    6    0           1.0000        -0.202680        -5.5152
    2    1           6.0000      -445.949326    -12134.8986
    3    1           6.0000       -99.652350     -2711.6784
    4    1           6.0000       -19.101055      -519.7661
    5    1           6.0000        -2.050716       -55.8028
    3    2          10.0000       -78.240654     -2129.0365
    4    2          10.0000       -11.272849      -306.7498
    5    2           9.0000        -0.221200        -6.0192
    4    3          14.0000        -2.577894       -70.1481


  Species: O

  List of occupied orbitals and eigenvalues:
    n    l              occ      energy [Ha]    energy [eV]
    1    0           2.0000       -18.926989      -515.0296
    2    0           2.0000        -0.880247       -23.9527
    2    1           4.0000        -0.331514        -9.0210


  Adding cutoff potential to free-atom effective potential.
  Creating fixed part of basis set: Ionic, confined, hydrogenic.
 
  Pt                   ion:

  List of free ionic orbitals and eigenvalues:
    n    l      energy [Ha]    energy [eV]
    1    0     -3153.944388    -85823.1934
    2    0      -516.374474    -14051.2643
    3    0      -120.278274     -3272.9384
    4    0       -26.344243      -716.8633
    5    0        -4.507613      -122.6584
    2    1      -446.736765    -12156.3259
    3    1      -100.432254     -2732.9007
    4    1       -19.879176      -540.9399
    5    1        -2.820901       -76.7606
    3    2       -79.020090     -2150.2461
    4    2       -12.050716      -327.9167
    5    2        -0.950990       -25.8778
    4    3        -3.355307       -91.3026


  List of ionic basis orbitals and eigenvalues:
    n    l      energy [Ha]    energy [eV]    outer radius [A]
    6    1        -0.525532       -14.3005       4.562397
    6    0        -0.812649       -22.1133       4.562397

 
  Pt                   hydrogenic:
 
  List of hydrogenic basis orbitals: 
    n    l      effective z      eigenvalue [eV]  inner max. [A]     outer max. [A]     outer radius [A]   
    4    3         7.400000       -46.5648           1.146169           1.146169           4.506962
    3    2         2.600000        -9.9241           1.779842           1.779842           4.618515
 
 
  O                    hydrogenic:
 
  List of hydrogenic basis orbitals: 
    n    l      effective z      eigenvalue [eV]  inner max. [A]     outer max. [A]     outer radius [A]   
    2    1         1.800000       -10.9749           1.164242           1.164242           4.578029
    3    2         7.600000       -87.3180           0.624125           0.624125           3.251020
    3    0         6.400000       -61.9207           0.061167           1.081902           4.001998
 
  Creating atomic-like basis functions for current effective potential.

  Species Pt                  :

  List of atomic basis orbitals and eigenvalues:
    n    l      energy [Ha]    energy [eV]    outer radius [A]
    1    0     -3153.099128    -85800.1927       0.122365
    2    0      -515.585619    -14029.7985       0.321431
    3    0      -119.497959     -3251.7049       0.669333
    4    0       -25.565949      -695.6849       1.393787
    5    0        -3.732860      -101.5763       3.402290
    6    0        -0.202680        -5.5152       4.562397
    2    1      -445.949326    -12134.8986       0.333438
    3    1       -99.652350     -2711.6784       0.720273
    4    1       -19.101055      -519.7661       1.575030
    5    1        -2.050716       -55.8028       4.087050
    3    2       -78.240654     -2129.0365       0.765673
    4    2       -11.272849      -306.7498       1.915300
    5    2        -0.221200        -6.0192       4.506962
    4    3        -2.577894       -70.1481       3.402290


  Species O                   :

  List of atomic basis orbitals and eigenvalues:
    n    l      energy [Ha]    energy [eV]    outer radius [A]
    1    0       -18.926989      -515.0296       1.415765
    2    0        -0.880247       -23.9527       4.413171
    2    1        -0.331514        -9.0210       4.522403

  Assembling full basis from fixed parts.
  | Species Pt :   atomic orbital   1 s accepted.
  | Species Pt :   atomic orbital   2 s accepted.
  | Species Pt :   atomic orbital   3 s accepted.
  | Species Pt :   atomic orbital   4 s accepted.
  | Species Pt :   atomic orbital   5 s accepted.
  | Species Pt :   atomic orbital   6 s accepted.
  | Species Pt :    ionic orbital   6 s accepted.
  | Species Pt :   atomic orbital   2 p accepted.
  | Species Pt :   atomic orbital   3 p accepted.
  | Species Pt :   atomic orbital   4 p accepted.
  | Species Pt :   atomic orbital   5 p accepted.
  | Species Pt :    ionic orbital   6 p accepted.
  | Species Pt :   atomic orbital   3 d accepted.
  | Species Pt :   atomic orbital   4 d accepted.
  | Species Pt :   atomic orbital   5 d accepted.
  | Species Pt :    hydro orbital   3 d accepted.
  | Species Pt :   atomic orbital   4 f accepted.
  | Species Pt :    hydro orbital   4 f accepted.
  | Species O :   atomic orbital   1 s accepted.
  | Species O :    hydro orbital   3 s accepted.
  | Species O :   atomic orbital   2 s accepted.
  | Species O :   atomic orbital   2 p accepted.
  | Species O :    hydro orbital   2 p accepted.
  | Species O :    hydro orbital   3 d accepted.
 
  Basis size parameters after reduction:
  | Total number of radial functions:       24
  | Total number of basis functions :      140
 
  Per-task memory consumption for arrays in subroutine allocate_ext:
  |           9.140848MB.
  Testing on-site integration grid accuracy.
  |  Species  Function  <phi|h_atom|phi> (log., in eV)  <phi|h_atom|phi> (rad., in eV)
           1        1             -85800.1927430741             -85799.8488530887 ***
           1        2             -14029.7985141093             -14029.7919754462
           1        3              -3251.7049213582              -3251.7045800048
           1        4               -695.6848560016               -695.6848304306
           1        5               -101.5762915836               -101.5762888810
           1        6                 -5.5240480860                 -5.5271251387
           1        7                  6.6025004501                  6.5645021630 ***
           1        8             -12134.8985829961             -12134.8985814838
           1        9              -2711.6784185979              -2711.6784119706
           1       10               -519.7661471610               -519.7661411428
           1       11                -55.8028188823                -55.8028174382
           1       12                  0.7406633387                  0.7376657585
           1       13              -2129.0365177978              -2129.0365151313
           1       14               -306.7498264777               -306.7498229758
           1       15                 -6.0197227729                 -6.0199120643
           1       16                  7.2063060013                  7.1819750069
           1       17                -70.1480733271                -70.1480725137
           1       18                 21.3061252265                 21.3060942854
           2       19               -515.0295626295               -515.0294562738
           2       20                 15.1698434419                 15.1699322204
           2       21                -21.6038822678                -21.6039118105
           2       22                 -9.0211123393                 -9.0212703513
           2       23                  8.3047696391                  8.2854840999
           2       24                 45.8428042125                 45.8427461222
 * Note: Onsite integrals marked "***" above are less accurate than
 * onsite_accuracy_threshold =    0.03000 eV. Usually, this is harmless.
 * However, one integral did have a negative value. This integral could be important.
 * When in doubt, tighten the "radial" and/or "radial_multiplier" flags to check.

  Preparing densities etc. for the partition functions (integrals / Hartree potential).

  Preparations completed.
  max(cpu_time)          :      0.400 s.
  Wall clock time (cpu1) :      0.638 s.
------------------------------------------------------------

  Initializing index lists of integration centers etc. from given atomic structure:
  Mapping all atomic coordinates to central unit cell.

  Initializing the k-points
  Using symmetry for reducing the k-points
  | k-points reduced from:      216 to      112
  | Number of k-points                             :       112
  | Consuming        378 KiB for k_phase_exx.
  The eigenvectors in the calculations are COMPLEX.
  | K-points in task   0:       112
  | Number of basis functions in the Hamiltonian integrals :      2762
  | Number of basis functions in a single unit cell        :       140
  | Number of centers in hartree potential         :       977
  | Number of centers in hartree multipole         :       545
  | Number of centers in electron density summation:       392
  | Number of centers in basis integrals           :       419
  | Number of centers in integrals                 :       174
  | Number of centers in hamiltonian               :       392
  | Consuming        241 KiB for k_phase.
  | Number of super-cells (origin) [n_cells]                     :         847
  | Number of super-cells (after PM_index) [n_cells]             :         138
  | Number of super-cells in hamiltonian [n_cells_in_hamiltonian]:         138
  | Size of matrix packed + index [n_hamiltonian_matrix_size] :      286039

------------------------------------------------------------
          Begin self-consistency loop: Initialization.

          Date     :  20241129, Time     :  071522.293
------------------------------------------------------------
  | Estimated reciprocal-space cutoff momentum G_max:         2.81535714 bohr^-1 .
  | Reciprocal lattice points for long-range Hartree potential:     140
  Partitioning the integration grid into batches with parallel hashing+maxmin method.
  | Number of batches:      512
  | Maximal batch size:      64
  | Minimal batch size:      59
  | Average batch size:      61.078
  | Standard deviation of batch sizes:       1.438

  Integration load balanced across     1 MPI tasks.
  Work distribution over tasks is as follows:
  Task     0 has      31272 integration points.
  Initializing partition tables, free-atom densities, potentials, etc. across the integration grid (initialize_grid_storage).
  | initialize_grid_storage: Actual outermost partition radius vs. multipole_radius_free
  | (-- VB: in principle, multipole_radius_free should be larger, hence this output)
  | Species        1: Confinement radius =              4.999999999999999 AA, multipole_radius_free =              5.031147476913517 AA.
  | Species        1: outer_partition_radius set to              5.031147476913517 AA .
  | Species        2: Confinement radius =              4.999999999999999 AA, multipole_radius_free =              5.048384829883283 AA.
  | Species        2: outer_partition_radius set to              5.048384829883283 AA .
  | The sparse table of interatomic distances needs        810.58 kbyte instead of      1404.49 kbyte of memory.
  | Net number of integration points:    31272
  | of which are non-zero points    :    26720
  | Numerical average free-atom electrostatic potential    :    -22.90899614 eV
  Renormalizing the initial density to the exact electron count on the 3D integration grid.
  | Initial density: Formal number of electrons (from input files) :     172.0000000000
  | Integrated number of electrons on 3D grid     :     171.9975625186
  | Charge integration error                      :      -0.0024374814
  | Normalization factor for density and gradient :       1.0000141716
  Renormalizing the free-atom superposition density to the exact electron count on the 3D integration grid.
  | Formal number of electrons (from input files) :     172.0000000000
  | Integrated number of electrons on 3D grid     :     171.9975625186
  | Charge integration error                      :      -0.0024374814
  | Normalization factor for density and gradient :       1.0000141716
  Obtaining max. number of non-zero basis functions in each batch (get_n_compute_maxes).
  | Maximal number of non-zero basis functions:      918 in task     0
  Allocating       26.318 MB for KS_eigenvector_complex
  Integrating Hamiltonian matrix: batch-based integration.
  Time summed over all CPUs for integration: real work        2.706 s, elapsed        2.706 s
  Integrating overlap matrix.
  Time summed over all CPUs for integration: real work        1.817 s, elapsed        1.817 s

  Updating Kohn-Sham eigenvalues and eigenvectors using ELSI and the (modified) LAPACK eigensolver.
  Singularity check in k-point 1, task 0 (analysis for other k-points/tasks may follow below):
  Overlap matrix is not singular
  | Lowest and highest eigenvalues :  0.1387E-02,  0.7719E+01
  Finished singularity check of overlap matrix
  | Time :     0.100 s
  Starting LAPACK eigensolver
  Finished Cholesky decomposition
  | Time :     0.032 s
  Finished transformation to standard eigenproblem
  | Time :     0.003 s
  Finished solving standard eigenproblem
  | Time :     0.014 s
  Finished back-transformation of eigenvectors
  | Time :     0.001 s

  Obtaining occupation numbers and electronic chemical potential using ELSI.
  | Note that, for insulating systems, the printed 'chemical potential' value is not uniquely defined.
  | It can be anywhere in the energy gap, as long as it correctly separates occupied and unoccupied states.
  | In systems with a gap, the physically relevant chemical potential is the VBM or HOMO.

  | Chemical potential (Fermi level):    -3.98055475 eV
  Writing Kohn-Sham eigenvalues.
  K-point:       1 at    0.000000    0.000000    0.000000 (in units of recip. lattice)

  State    Occupation    Eigenvalue [Ha]    Eigenvalue [eV]
      1       2.00000       -3153.084073       -85799.78307
      2       2.00000       -3153.084073       -85799.78307
      3       2.00000        -515.587333       -14029.84517
      4       2.00000        -515.587333       -14029.84517
      5       2.00000        -445.953584       -12135.01445
      6       2.00000        -445.953584       -12135.01445
      7       2.00000        -445.953580       -12135.01433
      8       2.00000        -445.953580       -12135.01433
      9       2.00000        -445.953573       -12135.01415
     10       2.00000        -445.953573       -12135.01415
     11       2.00000        -119.501693        -3251.80652
     12       2.00000        -119.501693        -3251.80652
     13       2.00000         -99.656697        -2711.79670
     14       2.00000         -99.656697        -2711.79670
     15       2.00000         -99.656662        -2711.79576
     16       2.00000         -99.656662        -2711.79576
     17       2.00000         -99.656608        -2711.79427
     18       2.00000         -99.656608        -2711.79427
     19       2.00000         -78.244947        -2129.15333
     20       2.00000         -78.244947        -2129.15333
     21       2.00000         -78.244945        -2129.15330
     22       2.00000         -78.244945        -2129.15330
     23       2.00000         -78.244912        -2129.15239
     24       2.00000         -78.244912        -2129.15239
     25       2.00000         -78.244892        -2129.15184
     26       2.00000         -78.244892        -2129.15184
     27       2.00000         -78.244886        -2129.15168
     28       2.00000         -78.244886        -2129.15168
     29       2.00000         -25.570592         -695.81121
     30       2.00000         -25.570592         -695.81121
     31       2.00000         -19.106183         -519.90570
     32       2.00000         -19.106183         -519.90570
     33       2.00000         -19.105981         -519.90019
     34       2.00000         -19.105981         -519.90019
     35       2.00000         -19.105657         -519.89139
     36       2.00000         -19.105657         -519.89139
     37       2.00000         -18.973033         -516.28249
     38       2.00000         -18.973033         -516.28249
     39       2.00000         -11.278126         -306.89343
     40       2.00000         -11.278126         -306.89343
     41       2.00000         -11.278083         -306.89224
     42       2.00000         -11.278083         -306.89224
     43       2.00000         -11.277798         -306.88451
     44       2.00000         -11.277798         -306.88451
     45       2.00000         -11.277639         -306.88018
     46       2.00000         -11.277639         -306.88018
     47       2.00000         -11.277614         -306.87950
     48       2.00000         -11.277614         -306.87950
     49       2.00000          -3.741595         -101.81399
     50       2.00000          -3.741548         -101.81269
     51       2.00000          -2.583679          -70.30549
     52       2.00000          -2.583677          -70.30543
     53       2.00000          -2.583632          -70.30420
     54       2.00000          -2.583632          -70.30420
     55       2.00000          -2.583231          -70.29328
     56       2.00000          -2.583226          -70.29316
     57       2.00000          -2.583208          -70.29268
     58       2.00000          -2.583208          -70.29268
     59       2.00000          -2.583105          -70.28986
     60       2.00000          -2.583105          -70.28986
     61       2.00000          -2.582880          -70.28374
     62       2.00000          -2.582880          -70.28373
     63       2.00000          -2.582864          -70.28331
     64       2.00000          -2.582864          -70.28331
     65       2.00000          -2.064643          -56.18179
     66       2.00000          -2.064391          -56.17493
     67       2.00000          -2.064391          -56.17493
     68       2.00000          -2.062624          -56.12685
     69       2.00000          -2.057857          -55.99715
     70       2.00000          -2.057857          -55.99715
     71       2.00000          -1.007989          -27.42877
     72       2.00000          -0.963114          -26.20766
     73       2.00000          -0.564915          -15.37212
     74       2.00000          -0.483297          -13.15119
     75       2.00000          -0.483297          -13.15119
     76       2.00000          -0.415878          -11.31662
     77       2.00000          -0.415878          -11.31662
     78       2.00000          -0.391677          -10.65807
     79       2.00000          -0.346070           -9.41705
     80       2.00000          -0.307354           -8.36353
     81       2.00000          -0.270892           -7.37134
     82       2.00000          -0.214697           -5.84221
     83       2.00000          -0.211056           -5.74312
     84       2.00000          -0.211056           -5.74312
     85       2.00000          -0.200826           -5.46475
     86       2.00000          -0.194458           -5.29148
     87       0.00000          -0.135280           -3.68116
     88       0.00000          -0.090707           -2.46827
     89       0.00000          -0.090707           -2.46827
     90       0.00000          -0.017709           -0.48188
     91       0.00000           0.063513            1.72827
     92       0.00000           0.337960            9.19637
     93       0.00000           0.337960            9.19637
     94       0.00000           0.344463            9.37332
     95       0.00000           0.357637            9.73180
     96       0.00000           0.357637            9.73180
     97       0.00000           0.367995           10.01366
     98       0.00000           0.522629           14.22145
     99       0.00000           0.580487           15.79584
    100       0.00000           0.629977           17.14256
    101       0.00000           0.706885           19.23531
    102       0.00000           0.774610           21.07821
    103       0.00000           0.777868           21.16686
    104       0.00000           0.777868           21.16686
    105       0.00000           0.798664           21.73276
    106       0.00000           0.807451           21.97186
    107       0.00000           0.820106           22.31623
    108       0.00000           0.820106           22.31623
    109       0.00000           0.952377           25.91549
    110       0.00000           0.952377           25.91549

  What follows are estimated values for band gap, HOMO, LUMO, etc.
  | They are estimated on a discrete k-point grid and not necessarily exact.
  | For converged numbers, create a DOS and/or band structure plot on a denser k-grid.

  Highest occupied state (VBM) at     -4.00698001 eV (relative to internal zero)
  | Occupation number:      1.99981384
  | K-point:      91 at    0.500000    0.500000    0.833333 (in units of recip. lattice)

  Lowest unoccupied state (CBM) at    -3.97982235 eV (relative to internal zero)
  | Occupation number:      0.91750438
  | K-point:      18 at    0.000000    0.666667    0.500000 (in units of recip. lattice)

  ESTIMATED overall HOMO-LUMO gap:      0.02715767 eV between HOMO at k-point 91 and LUMO at k-point 18
  | This appears to be an indirect band gap.
  | Smallest direct gap :      0.15335391 eV for k_point 91 at    0.500000    0.500000    0.833333 (in units of recip. lattice)
  However, this system has fractional occupation numbers. Since we use a finite k-point grid,
  this material is metallic within the approximate finite broadening function (occupation_type)
  applied to determine the occupation numbers.
  Calculating total energy contributions from superposition of free atom densities.

  Total energy components:
  | Sum of eigenvalues            :      -24023.19676687 Ha     -653704.44414233 eV
  | XC energy correction          :        -736.30523570 Ha      -20035.88487792 eV
  | XC potential correction       :         962.73881397 Ha       26197.45603993 eV
  | Free-atom electrostatic energy:      -14447.44156644 Ha     -393134.88750568 eV
  | Hartree energy correction     :           0.00000000 Ha           0.00000000 eV
  | Entropy correction            :          -0.00000228 Ha          -0.00006199 eV
  | ---------------------------
  | Total energy                  :      -38244.20475504 Ha    -1040677.76048600 eV
  | Total energy, T -> 0          :      -38244.20475731 Ha    -1040677.76054799 eV  <-- do not rely on this value for anything but (periodic) metals
  | Electronic free energy        :      -38244.20475959 Ha    -1040677.76060998 eV

  Derived energy quantities:
  | Kinetic energy                :       42753.36360126 Ha     1163378.21562222 eV
  | Electrostatic energy          :      -80261.26312060 Ha    -2184020.09123030 eV
  | Energy correction for multipole
  | error in Hartree potential    :           0.00000000 Ha           0.00000000 eV
  | Sum of eigenvalues per atom                           :     -163426.11103558 eV
  | Total energy (T->0) per atom                          :     -260169.44013700 eV  <-- do not rely on this value for anything but (periodic) metals
  | Electronic free energy per atom                       :     -260169.44015249 eV
  
  --------------------------------------------
  Constructing auxiliary basis (full product) ...
  
  Product basis:
  | charge radius: extent of product basis function
  | field radius: extent of its Coulomb potential
  | Species   l  charge radius    field radius
  |    Pt     0     0.738101 A      7.084772 A
  |    Pt     0     1.091470 A      6.346622 A
  |    Pt     0     1.536988 A      5.826100 A
  |    Pt     0     2.036025 A      6.118077 A
  |    Pt     0     3.010779 A      6.746661 A
  |    Pt     0     3.797996 A      7.531337 A
  |    Pt     0     4.188210 A      8.510685 A
  |    Pt     0     4.344663 A      8.510685 A
  |    Pt     0     4.398103 A      4.398103 A
  |    Pt     0     4.506962 A     14.048937 A
  |    Pt     0     4.506962 A     19.305621 A
  |    Pt     0     4.562397 A     31.868583 A
  |    Pt     0     4.562397 A     38.753474 A
  |    Pt     0     4.618515 A     42.735086 A
  |    Pt     0     4.618515 A     44.331489 A
  |    Pt     0     4.618515 A     44.876766 A
  |    Pt     1     0.738101 A      0.738101 A
  |    Pt     1     1.039381 A      1.039381 A
  |    Pt     1     1.393787 A      1.393787 A
  |    Pt     1     1.801734 A      1.801734 A
  |    Pt     1     2.599968 A      2.599968 A
  |    Pt     1     3.239920 A      3.239920 A
  |    Pt     1     3.988333 A      3.988333 A
  |    Pt     1     4.239725 A      4.239725 A
  |    Pt     1     4.344663 A      4.344663 A
  |    Pt     1     4.452200 A      5.548058 A
  |    Pt     1     4.506962 A     13.543027 A
  |    Pt     1     4.562397 A     18.839323 A
  |    Pt     1     4.562397 A     23.765170 A
  |    Pt     1     4.618515 A     36.904019 A
  |    Pt     1     4.618515 A     41.702885 A
  |    Pt     1     4.618515 A     43.792836 A
  |    Pt     1     4.618515 A     44.876766 A
  |    Pt     2     0.865239 A      0.865239 A
  |    Pt     2     1.233400 A      1.233400 A
  |    Pt     2     2.036025 A      2.036025 A
  |    Pt     2     2.506341 A      2.506341 A
  |    Pt     2     3.123249 A      3.123249 A
  |    Pt     2     3.988333 A      3.988333 A
  |    Pt     2     4.188210 A      4.188210 A
  |    Pt     2     4.344663 A      4.344663 A
  |    Pt     2     4.452200 A      7.623972 A
  |    Pt     2     4.506962 A     15.682910 A
  |    Pt     2     4.562397 A     21.030446 A
  |    Pt     2     4.562397 A     31.098845 A
  |    Pt     2     4.562397 A     38.753474 A
  |    Pt     2     4.618515 A     42.735086 A
  |    Pt     2     4.618515 A     44.876766 A
  |    Pt     3     1.174538 A      1.174538 A
  |    Pt     3     1.674307 A      1.674307 A
  |    Pt     3     2.011286 A      2.011286 A
  |    Pt     3     2.974196 A      2.974196 A
  |    Pt     3     3.844711 A      3.844711 A
  |    Pt     3     4.291873 A      4.291873 A
  |    Pt     3     4.398103 A      4.398103 A
  |    Pt     3     4.506962 A      9.735677 A
  |    Pt     3     4.562397 A     10.735941 A
  |    Pt     3     4.562397 A     14.753003 A
  |    Pt     3     4.562397 A     18.384288 A
  |    Pt     3     4.562397 A     24.353389 A
  |    Pt     3     4.618515 A     37.817442 A
  |    Pt     3     4.618515 A     41.702885 A
  |    Pt     3     4.618515 A     44.331489 A
  |    Pt     4     1.823895 A      1.823895 A
  |    Pt     4     2.797843 A      2.797843 A
  |    Pt     4     3.751848 A      3.751848 A
  |    Pt     4     4.239725 A      4.239725 A
  |    Pt     4     4.344663 A      4.344663 A
  |    Pt     4     4.452200 A      4.452200 A
  |    Pt     4     4.506962 A      5.897762 A
  |    Pt     4     4.506962 A     10.099361 A
  |    Pt     4     4.562397 A     16.876489 A
  |    Pt     4     4.562397 A     34.294005 A
  |    Pt     4     4.618515 A     40.201140 A
  |    Pt     4     4.618515 A     43.260728 A
  |    Pt     5     4.037390 A      4.037390 A
  |    Pt     5     4.291873 A      4.291873 A
  |    Pt     5     4.398103 A      4.398103 A
  |    Pt     5     4.452200 A      4.452200 A
  |    Pt     5     4.506962 A      4.506962 A
  |    Pt     5     4.506962 A     20.774914 A
  |    Pt     5     4.562397 A     35.575084 A
  |    Pt     5     4.562397 A     40.695615 A
  |    Pt     6     4.239725 A      4.239725 A
  |    Pt     6     4.398103 A     22.631010 A
  |    Pt     6     4.506962 A     36.012658 A
  |    O      0     4.306578 A      4.306578 A
  |    O      0     4.359549 A      4.359549 A
  |    O      0     4.467453 A      4.467453 A
  |    O      0     4.522403 A     27.614504 A
  |    O      0     4.578029 A     37.485932 A
  |    O      0     4.578029 A     41.845764 A
  |    O      0     4.578029 A     43.942876 A
  |    O      0     4.578029 A     44.483374 A
  |    O      1     4.413171 A      7.109045 A
  |    O      1     4.467453 A     12.628323 A
  |    O      1     4.522403 A     17.142603 A
  |    O      1     4.578029 A     34.834763 A
  |    O      1     4.578029 A     40.338874 A
  |    O      1     4.578029 A     43.408945 A
  |    O      1     4.578029 A     44.483374 A
  |    O      2     4.413171 A      4.413171 A
  |    O      2     4.467453 A      7.557140 A
  |    O      2     4.522403 A     27.954162 A
  |    O      2     4.578029 A     37.485932 A
  |    O      2     4.578029 A     41.845764 A
  |    O      2     4.578029 A     43.942876 A
  |    O      3     3.498446 A     22.432626 A
  |    O      3     3.498446 A     36.580516 A
  |    O      3     3.541477 A     41.337315 A
  |    O      4     3.251020 A     37.030457 A

  | Shrink_full_auxil_basis : there are      111  radial auxiliary wave functions
                            accepted and     275 rejected.
  | Shrink_full_auxil_basis : there are totally              109595 partial auxiliary wave functions.
  prodbas_tasks_distribution_pbc not up to date - distributing tasks.
 
  | Number of product basis functions per thread :109595
  Parallel distribution of product basis not up to date - distributing tasks.
 
  | Number of product basis functions per thread :  1142
  | Minimal requirement for computer memory :           0.094 Gbs
  Minimal free memory per node on init_fm entry [GB]:    125.42
  -----------------------------------------
  --- Initializing Fock matrix calculations
  -----------------------------------------
  screening_threshold (crit_val) =  0.000000100000
  coul_mat_threshold =  0.000000000100
  No atoms are split internally
  Number of super-cells in X Y Z:       5       5       3
  Number of atoms pairs total:         1100
  Atom pair distribution:
  Cell:       -3      -1      -1 atom pairs:        1
  Cell:       -3      -1       0 atom pairs:        2
  Cell:       -3      -1       1 atom pairs:        1
  Cell:       -3       0      -1 atom pairs:        1
  Cell:       -3       0       0 atom pairs:        5
  Cell:       -3       0       1 atom pairs:        2
  Cell:       -3       1      -1 atom pairs:        1
  Cell:       -3       1       0 atom pairs:        3
  Cell:       -3       1       1 atom pairs:        2
  Cell:       -2      -2      -1 atom pairs:        4
  Cell:       -2      -2       0 atom pairs:       10
  Cell:       -2      -2       1 atom pairs:        2
  Cell:       -2      -1      -2 atom pairs:        1
  Cell:       -2      -1      -1 atom pairs:       11
  Cell:       -2      -1       0 atom pairs:       16
  Cell:       -2      -1       1 atom pairs:       12
  Cell:       -2       0      -2 atom pairs:        1
  Cell:       -2       0      -1 atom pairs:       13
  Cell:       -2       0       0 atom pairs:       16
  Cell:       -2       0       1 atom pairs:       12
  Cell:       -2       0       2 atom pairs:        2
  Cell:       -2       1      -1 atom pairs:       12
  Cell:       -2       1       0 atom pairs:       15
  Cell:       -2       1       1 atom pairs:       11
  Cell:       -2       1       2 atom pairs:        2
  Cell:       -2       2      -1 atom pairs:        2
  Cell:       -2       2       0 atom pairs:       11
  Cell:       -2       2       1 atom pairs:        5
  Cell:       -1      -3      -1 atom pairs:        2
  Cell:       -1      -3       0 atom pairs:        2
  Cell:       -1      -2      -2 atom pairs:        1
  Cell:       -1      -2      -1 atom pairs:       11
  Cell:       -1      -2       0 atom pairs:       16
  Cell:       -1      -2       1 atom pairs:       12
  Cell:       -1      -1      -2 atom pairs:        3
  Cell:       -1      -1      -1 atom pairs:       15
  Cell:       -1      -1       0 atom pairs:       16
  Cell:       -1      -1       1 atom pairs:       15
  Cell:       -1      -1       2 atom pairs:        3
  Cell:       -1       0      -2 atom pairs:        3
  Cell:       -1       0      -1 atom pairs:       15
  Cell:       -1       0       0 atom pairs:       16
  Cell:       -1       0       1 atom pairs:       15
  Cell:       -1       0       2 atom pairs:        3
  Cell:       -1       1      -2 atom pairs:        2
  Cell:       -1       1      -1 atom pairs:       15
  Cell:       -1       1       0 atom pairs:       16
  Cell:       -1       1       1 atom pairs:       14
  Cell:       -1       1       2 atom pairs:        3
  Cell:       -1       2      -1 atom pairs:       12
  Cell:       -1       2       0 atom pairs:       15
  Cell:       -1       2       1 atom pairs:       11
  Cell:       -1       2       2 atom pairs:        2
  Cell:       -1       3       0 atom pairs:        3
  Cell:       -1       3       1 atom pairs:        3
  Cell:        0      -3      -1 atom pairs:        3
  Cell:        0      -3       0 atom pairs:        5
  Cell:        0      -2      -2 atom pairs:        2
  Cell:        0      -2      -1 atom pairs:       12
  Cell:        0      -2       0 atom pairs:       16
  Cell:        0      -2       1 atom pairs:       14
  Cell:        0      -1      -2 atom pairs:        3
  Cell:        0      -1      -1 atom pairs:       15
  Cell:        0      -1       0 atom pairs:       16
  Cell:        0      -1       1 atom pairs:       15
  Cell:        0      -1       2 atom pairs:        3
  Cell:        0       0      -2 atom pairs:        3
  Cell:        0       0      -1 atom pairs:       15
  Cell:        0       0       0 atom pairs:       16
  Cell:        0       0       1 atom pairs:       15
  Cell:        0       0       2 atom pairs:        3
  Cell:        0       1      -2 atom pairs:        3
  Cell:        0       1      -1 atom pairs:       15
  Cell:        0       1       0 atom pairs:       16
  Cell:        0       1       1 atom pairs:       15
  Cell:        0       1       2 atom pairs:        3
  Cell:        0       2      -1 atom pairs:       14
  Cell:        0       2       0 atom pairs:       16
  Cell:        0       2       1 atom pairs:       12
  Cell:        0       2       2 atom pairs:        2
  Cell:        0       3       0 atom pairs:        5
  Cell:        0       3       1 atom pairs:        3
  Cell:        1      -3      -1 atom pairs:        3
  Cell:        1      -3       0 atom pairs:        3
  Cell:        1      -2      -2 atom pairs:        2
  Cell:        1      -2      -1 atom pairs:       11
  Cell:        1      -2       0 atom pairs:       15
  Cell:        1      -2       1 atom pairs:       12
  Cell:        1      -1      -2 atom pairs:        3
  Cell:        1      -1      -1 atom pairs:       14
  Cell:        1      -1       0 atom pairs:       16
  Cell:        1      -1       1 atom pairs:       15
  Cell:        1      -1       2 atom pairs:        2
  Cell:        1       0      -2 atom pairs:        3
  Cell:        1       0      -1 atom pairs:       15
  Cell:        1       0       0 atom pairs:       16
  Cell:        1       0       1 atom pairs:       15
  Cell:        1       0       2 atom pairs:        3
  Cell:        1       1      -2 atom pairs:        3
  Cell:        1       1      -1 atom pairs:       15
  Cell:        1       1       0 atom pairs:       16
  Cell:        1       1       1 atom pairs:       15
  Cell:        1       1       2 atom pairs:        3
  Cell:        1       2      -1 atom pairs:       12
  Cell:        1       2       0 atom pairs:       16
  Cell:        1       2       1 atom pairs:       11
  Cell:        1       2       2 atom pairs:        1
  Cell:        1       3       0 atom pairs:        2
  Cell:        1       3       1 atom pairs:        2
  Cell:        2      -2      -1 atom pairs:        5
  Cell:        2      -2       0 atom pairs:       11
  Cell:        2      -2       1 atom pairs:        2
  Cell:        2      -1      -2 atom pairs:        2
  Cell:        2      -1      -1 atom pairs:       11
  Cell:        2      -1       0 atom pairs:       15
  Cell:        2      -1       1 atom pairs:       12
  Cell:        2       0      -2 atom pairs:        2
  Cell:        2       0      -1 atom pairs:       12
  Cell:        2       0       0 atom pairs:       16
  Cell:        2       0       1 atom pairs:       13
  Cell:        2       0       2 atom pairs:        1
  Cell:        2       1      -1 atom pairs:       12
  Cell:        2       1       0 atom pairs:       16
  Cell:        2       1       1 atom pairs:       11
  Cell:        2       1       2 atom pairs:        1
  Cell:        2       2      -1 atom pairs:        2
  Cell:        2       2       0 atom pairs:       10
  Cell:        2       2       1 atom pairs:        4
  Cell:        3      -1      -1 atom pairs:        2
  Cell:        3      -1       0 atom pairs:        3
  Cell:        3      -1       1 atom pairs:        1
  Cell:        3       0      -1 atom pairs:        2
  Cell:        3       0       0 atom pairs:        5
  Cell:        3       0       1 atom pairs:        1
  Cell:        3       1      -1 atom pairs:        1
  Cell:        3       1       0 atom pairs:        2
  Cell:        3       1       1 atom pairs:        1
  sparsity of pfbvk:   1.000000
  Number of atoms pairs in BvK cells:         1096
  Max. memory consumption per node for Pulay mixing [GB]:      0.42
  Minimal total memory per node [GB]:    131.90
  Minimal free memory per node [GB]:    125.01
  --- Initializing LVL triples, type HSE
  | Storage requirements for basis-basbas products (processor-local):
  |   Species Pt: n_prodsfn:  2712; storage:       84.75 MiB.
  |   Species O: n_prodsfn:   211; storage:        6.59 MiB.

  --- Initializing Coulomb matrix calculations, type HSE
  Preparing TB like auxiliary 2-center HSE-pot matrix
  SBT integration errors (all should be 'small'):
  large logFT aliasing -> increase N/lnrange
  large SBT aliasing -> decrease lnk0 & increase lnk0+lnrange
  large SBT ringing -> decrease lnr0 & increase lnr0+lnrange
  |            El't  L: logFT-al.   small-k   large-k   small-r   large-r
  | Need to store 13335 splines of   292 points taking      30632 KiB.
  | Spline reduction from  4096 to   292 points by (cutting and)     1 x coarsening gives error:  0.00E+00
  | Maximum value outside interaction range:  2.91E-13
  Finished with initialize_tb_auxmat/lvl_triples, time:        3.820
  --- Calculating Coulomb matrices
  Upper limit for memory consumption per node [GB] for Coulomb matrices if no compression occurs:       0.010
  Upper limit for temporary arrays in Coulomb matrix initalization [GB]:      0.30
  Time for Coulomb matrix computation [s]:    313.26
  Max. memory consumption per node for global Coulomb matrix [GB]:      0.38
  Time to calculate Coulomb Matrices   :      313.385
  Max. memory consumption per node for uncompressed ovlp3fn matrix [GB]:       4.374
  --- Calculating OVLP3FN
  --- Done calculating OVLP3FN, time:      288.970
  Max. memory consumption per node for compressed global ovlp3fn matrix [GB]:       1.201
  Atomic logSBT for 2-center HSE-pot matrix    :  max(cpu_time)    wall_clock(cpu1)
  | TB initialization                           :        3.541 s           3.541 s
  | TB usage                                    :      163.304 s         163.416 s

  Atomic logSBT for LVL-triples                :  max(cpu_time)    wall_clock(cpu1)
  | Multiplication with kernel                  :        0.760 s           0.782 s
  | Main matrix multiplication                  :       98.470 s          98.477 s
  | Analytic angular integration                :        0.940 s           0.980 s
  | Kernel construction                         :        0.740 s           0.710 s
  | Overall 2-center overlap time               :      109.831 s         109.818 s
  | 3-center preparation multiplications        :        1.768 s           1.767 s
  | 3-center preparation SBTs                   :       36.465 s          36.469 s
  | 3-center combinations                       :      153.997 s         153.998 s
  | Overal 3-center time                        :      192.260 s         192.261 s
  | LVL initialization                          :        0.277 s           0.276 s
  | Whole LVL-triples                           :        0.277 s           0.276 s

  Assumed free memory per node for Fock matrix prefactors [GB]    111.82
  Memory per instance for Coulomb / ovlp matrix [GB]      0.38      1.20
  Number of nodes, tasks per node     1     1
  Number of instances:    1
  -----------------------------------------------------
  Dividing atoms among tasks for exact exchange energy:
  Atom:     1 Weight:  0.26150E+09
  Atom:     2 Weight:  0.26150E+09
  Atom:     3 Weight:  0.11879E+08
  Atom:     4 Weight:  0.11879E+08

  Average weight per task:  0.54676E+09

  Number of "big" (above average) atoms  :     0
  Number of "small" (below average) atoms:     4

  All atoms have below average work per task
  No atom will be divided among tasks, atoms will be sorted to get best load distribution

  Atom division among tasks:
  Atom     1: (initial) task:     0, # of tasks:     1
  Atom     2: (initial) task:     0, # of tasks:     1
  Atom     3: (initial) task:     0, # of tasks:     1
  Atom     4: (initial) task:     0, # of tasks:     1

  -----------------------------------------------------
  Task      0: my_n_atoms2:      4 my_atom_list:      1     2     3     4
  Task      0: my_n_atom_pairs:   1096
  Transferring Coulomb matrix to final data layout
  Coulomb matrix communicaton time [s]    0.13
  Max. memory per node for ovlp3fn matrices:        1.201 GB
  Total memory for ovlp3fn matrices:        1.201 GB
  --- Done getting norm of OVLP3FN, time:        0.001
  Sparsity of ovlp3fn matrix     804    1096
  --- time for get_ovlp3fn:        0.550
  Max. memory consumption per node for Hartree Fock matrix [GB]      0.42
  Blocksize for Fock matrix computation:     4
  Minimal free memory per node after Fock matrix initialization [GB]:    123.05
  Initialize hartree_potential_storage
  Max. number of atoms included in rho_multipole:            4

  End scf initialization - timings             :  max(cpu_time)    wall_clock(cpu1)
  | Time for scf. initialization                :      614.726 s         615.158 s
  | Boundary condition initialization           :        0.107 s           0.113 s
  | Integration                                 :        4.484 s           4.555 s
  | Solution of K.-S. eqns.                     :        0.846 s           0.992 s
  | Grid partitioning                           :        0.269 s           0.310 s
  | Preloading free-atom quantities on grid     :        1.432 s           1.468 s
  | Free-atom superposition energy              :        0.146 s           0.148 s
  | Total energy evaluation                     :        0.000 s           0.003 s
  | Product basis setup: Total time             :      607.548 s         607.631 s

  Partial memory accounting:
  | Current value for overall tracked memory usage:
  |   Minimum:     1187.852 MB (on task 0)
  |   Maximum:     1187.852 MB (on task 0)
  |   Average:     1187.852 MB
  | Peak value for overall tracked memory usage:
  |   Minimum:     5360.756 MB (on task 0 after allocating ovlp3fn2)
  |   Maximum:     5360.756 MB (on task 0 after allocating ovlp3fn2)
  |   Average:     5360.756 MB
  | Largest tracked array allocation so far:
  |   Minimum:     4171.415 MB (ovlp3fn_nosplit%dat on task 0)
  |   Maximum:     4171.415 MB (ovlp3fn_nosplit%dat on task 0)
  |   Average:     4171.415 MB
  Note:  These values currently only include a subset of arrays which are explicitly tracked.
  The "true" memory usage will be greater.
------------------------------------------------------------
  Evaluating new KS density using the density matrix
  Evaluating density matrix
  Time summed over all CPUs for getting density from density matrix: real work        4.801 s, elapsed        4.801 s
  Integration grid: deviation in total charge (<rho> - N_e) =   2.827960E-11

  Time for density update prior                :  max(cpu_time)    wall_clock(cpu1)
  | self-consistency iterative process          :        4.889 s           4.891 s

------------------------------------------------------------
          Begin self-consistency iteration #    1

  Date     :  20241129, Time     :  072542.344
------------------------------------------------------------
  Pulay mixing of updated and previous charge densities.
  Renormalizing the density to the exact electron count on the 3D integration grid.
  | Formal number of electrons (from input files) :     172.0000000000
  | Integrated number of electrons on 3D grid     :     172.0000000000
  | Charge integration error                      :       0.0000000000
  | Normalization factor for density and gradient :       1.0000000000

  Evaluating partitioned Hartree potential by multipole expansion.
  | Original multipole sum: apparent total charge =  -0.116742E-11
  | Sum of charges compensated after spline to logarithmic grids =  -0.232970E-06
  | Analytical far-field extrapolation by fixed multipoles:
  | Hartree multipole sum: apparent total charge =  -0.116736E-11
  Summing up the Hartree potential.
  Time summed over all CPUs for potential: real work        1.158 s, elapsed        1.158 s
  | RMS charge density error from multipole expansion :   0.103883E-02
  | Average real-space part of the electrostatic potential :     -0.00645547 eV

  Integrating Hamiltonian matrix: batch-based integration.
  Time summed over all CPUs for integration: real work        2.548 s, elapsed        2.548 s
  Max. memory consumption per node for dm_cols [GB]:      0.03
  Max. memory consumption per node for fock_matrix [GB]:      0.02
  Calculating non-local Hartree-Fock exchange by two-center RI (RI-LVL).
  screening_threshold (crit_val) =  0.000000100000
  Max. allocated memory per node for ovlp3fn_rcv [GB]:      0.27
  Max. allocated memory per node for fock_matrix_row [GB]:      0.00
  Max. memory consumption per node for m_ovlp_fact11 [GB]:      0.00
  Max. memory consumption per node for d_aux_mem [GB]:      0.00
  Max. memory consumption per node for dm_x_o3fn_aux [GB]:      0.00
  Max. allocated memory per node for tmp1/tmp2 [GB]:      0.37
   final impselect vector           1           3           4           1
   Time for autotuning:    82.3041963176802
  Exact exchange progress report - outermost block loop i_block: 1 ..      35
  |        1         2         3         4         5         6         7         8         9        10
  |       11        12        13        14        15        16        17        18        19        20
  |       21        22        23        24        25        26        27        28        29        30
  |       31        32        33        34        35  
 Total ovlp3fn data transfer [GB]   2.02450063452125
  Full exact exchange energy:   19595.151911310972 eV.
  Detailed communication and barrier times:
  | Comm    0:        0.000       0.000       0.000       0.000       0.000       0.000       0.000       0.000       0.000       0.000
  | Imbalance    0:        0.000       0.000       0.000       0.000       0.000       0.000       0.000       0.000       0.000       0.000
  Times            DM_x_o3fn   CM_prod_1   CM_prod_2   tmp2_prod        Sync   Imbalance       Other  Total calc
  | Times    0:      150.183     253.663     105.466     224.590       0.000       0.000       2.881     736.784
  | Times  sum:      150.183     253.663     105.466     224.590       0.000       0.000       2.881     736.784

  Decomposition of Other based on code block (only on MPI task 0):
  Times             Block #1    Block #2    Block #3    Block #4    Block #5    Block #6    Block #7    Block #8
  | Times    0:        0.120       0.000       0.010       0.003       0.035       0.012       0.515       0.000

  Times             Block #9   Block #10   Block #11   Block #12   Block #13   Block #14   Block #15   Block #16
  | Times    0:        0.033       0.000       0.941       0.008       0.000       0.040       0.015       0.000

  Times            Block Sum    Expected
  | Times    0:        1.732       2.881
 Time for Fock matrix mixing  6.342479400336742E-002

  Updating Kohn-Sham eigenvalues and eigenvectors using ELSI and the (modified) LAPACK eigensolver.
  Starting LAPACK eigensolver
  Finished Cholesky decomposition
  | Time :     0.001 s
  Finished transformation to standard eigenproblem
  | Time :     0.001 s
  Finished solving standard eigenproblem
  | Time :     0.002 s
  Finished back-transformation of eigenvectors
  | Time :     0.000 s

  Obtaining occupation numbers and electronic chemical potential using ELSI.
  | Note that, for insulating systems, the printed 'chemical potential' value is not uniquely defined.
  | It can be anywhere in the energy gap, as long as it correctly separates occupied and unoccupied states.
  | In systems with a gap, the physically relevant chemical potential is the VBM or HOMO.

  | Chemical potential (Fermi level):    -3.34885737 eV
  Writing Kohn-Sham eigenvalues.
  K-point:       1 at    0.000000    0.000000    0.000000 (in units of recip. lattice)

  State    Occupation    Eigenvalue [Ha]    Eigenvalue [eV]
      1       2.00000       -3159.470937       -85973.57849
      2       2.00000       -3159.470937       -85973.57849
      3       2.00000        -518.115258       -14098.63349
      4       2.00000        -518.115258       -14098.63349
      5       2.00000        -448.045291       -12191.93267
      6       2.00000        -448.045290       -12191.93267
      7       2.00000        -448.044715       -12191.91702
      8       2.00000        -448.044715       -12191.91702
      9       2.00000        -448.044614       -12191.91426
     10       2.00000        -448.044614       -12191.91426
     11       2.00000        -120.747003        -3285.69313
     12       2.00000        -120.747003        -3285.69312
     13       2.00000        -100.699744        -2740.17945
     14       2.00000        -100.699744        -2740.17945
     15       2.00000        -100.699662        -2740.17722
     16       2.00000        -100.699661        -2740.17720
     17       2.00000        -100.699409        -2740.17034
     18       2.00000        -100.699409        -2740.17034
     19       2.00000         -79.065617        -2151.48491
     20       2.00000         -79.065617        -2151.48491
     21       2.00000         -79.065131        -2151.47168
     22       2.00000         -79.065131        -2151.47168
     23       2.00000         -79.065118        -2151.47133
     24       2.00000         -79.065118        -2151.47133
     25       2.00000         -79.064419        -2151.45231
     26       2.00000         -79.064419        -2151.45231
     27       2.00000         -79.062995        -2151.41354
     28       2.00000         -79.062994        -2151.41354
     29       2.00000         -26.207767         -713.14963
     30       2.00000         -26.207767         -713.14962
     31       2.00000         -19.651277         -534.73845
     32       2.00000         -19.651277         -534.73845
     33       2.00000         -19.650959         -534.72981
     34       2.00000         -19.650957         -534.72975
     35       2.00000         -19.650271         -534.71107
     36       2.00000         -19.650271         -534.71107
[...]
  | Electrostatic energy          :      -80261.28318590 Ha    -2184020.63723491 eV
  | Energy correction for multipole
  | error in Hartree potential    :           0.02340097 Ha           0.63677271 eV
  | Sum of eigenvalues per atom                           :     -164308.69607717 eV
  | Total energy (T->0) per atom                          :     -260165.12124555 eV  <-- do not rely on this value for anything but (periodic) metals
  | Electronic free energy per atom                       :     -260165.12124555 eV

  Self-consistency convergence accuracy:
  | Change of charge density      :  0.8683E-06
  | Change of unmixed KS density  :  0.2681E-05
  | Change of sum of eigenvalues  :  0.3070E-03 eV
  | Change of total energy        : -0.8726E-05 eV

  Writing Kohn-Sham eigenvalues.
  K-point:       1 at    0.000000    0.000000    0.000000 (in units of recip. lattice)

  State    Occupation    Eigenvalue [Ha]    Eigenvalue [eV]
      1       2.00000       -3159.505224       -85974.51147
      2       2.00000       -3159.505224       -85974.51147
      3       2.00000        -518.151793       -14099.62767
      4       2.00000        -518.151793       -14099.62767
      5       2.00000        -448.082127       -12192.93506
      6       2.00000        -448.082127       -12192.93506
      7       2.00000        -448.082089       -12192.93402
      8       2.00000        -448.082089       -12192.93402
      9       2.00000        -448.079573       -12192.86556
     10       2.00000        -448.079573       -12192.86556
     11       2.00000        -120.784539        -3286.71452
     12       2.00000        -120.784538        -3286.71451
     13       2.00000        -100.739103        -2741.25047
     14       2.00000        -100.739103        -2741.25045
     15       2.00000        -100.738745        -2741.24073
     16       2.00000        -100.738745        -2741.24073
     17       2.00000        -100.733835        -2741.10711
     18       2.00000        -100.733835        -2741.10711
     19       2.00000         -79.104524        -2152.54363
     20       2.00000         -79.104524        -2152.54363
     21       2.00000         -79.103861        -2152.52557
     22       2.00000         -79.103861        -2152.52556
     23       2.00000         -79.101495        -2152.46119
     24       2.00000         -79.101495        -2152.46119
     25       2.00000         -79.101182        -2152.45266
     26       2.00000         -79.101181        -2152.45266
     27       2.00000         -79.100604        -2152.43696
     28       2.00000         -79.100604        -2152.43696
     29       2.00000         -26.251450         -714.33830
     30       2.00000         -26.251450         -714.33829
     31       2.00000         -19.700330         -536.07326
     32       2.00000         -19.700330         -536.07326
     33       2.00000         -19.700062         -536.06595
     34       2.00000         -19.700060         -536.06591
     35       2.00000         -19.685148         -535.66014
     36       2.00000         -19.685148         -535.66014
     37       2.00000         -19.321558         -525.76634
     38       2.00000         -19.321555         -525.76625
     39       2.00000         -11.741145         -319.49281
     40       2.00000         -11.741145         -319.49281
     41       2.00000         -11.735813         -319.34773
     42       2.00000         -11.735813         -319.34771
     43       2.00000         -11.727120         -319.11116
     44       2.00000         -11.727119         -319.11115
     45       2.00000         -11.726989         -319.10761
     46       2.00000         -11.726989         -319.10761
     47       2.00000         -11.724922         -319.05135
     48       2.00000         -11.724920         -319.05131
     49       2.00000          -3.986231         -108.47087
     50       2.00000          -3.986214         -108.47040
     51       2.00000          -2.872033          -78.15198
     52       2.00000          -2.872029          -78.15189
     53       2.00000          -2.871850          -78.14702
     54       2.00000          -2.871850          -78.14702
     55       2.00000          -2.862618          -77.89580
     56       2.00000          -2.862608          -77.89552
     57       2.00000          -2.856367          -77.72569
     58       2.00000          -2.856367          -77.72569
     59       2.00000          -2.854671          -77.67955
     60       2.00000          -2.854671          -77.67955
     61       2.00000          -2.854109          -77.66426
     62       2.00000          -2.854106          -77.66417
     63       2.00000          -2.853483          -77.64723
     64       2.00000          -2.853483          -77.64723
     65       2.00000          -2.268388          -61.72599
     66       2.00000          -2.268388          -61.72599
     67       2.00000          -2.265439          -61.64573
     68       2.00000          -2.263654          -61.59716
     69       2.00000          -2.227071          -60.60168
     70       2.00000          -2.227071          -60.60168
     71       2.00000          -1.065806          -29.00204
     72       2.00000          -1.010681          -27.50203
     73       2.00000          -0.613385          -16.69106
     74       2.00000          -0.518990          -14.12244
     75       2.00000          -0.518990          -14.12244
     76       2.00000          -0.414027          -11.26626
     77       2.00000          -0.414027          -11.26626
     78       2.00000          -0.412693          -11.22996
     79       2.00000          -0.383448          -10.43415
     80       2.00000          -0.376350          -10.24101
     81       2.00000          -0.362268           -9.85781
     82       2.00000          -0.301540           -8.20531
     83       2.00000          -0.293763           -7.99369
     84       2.00000          -0.293763           -7.99369
     85       2.00000          -0.288892           -7.86116
     86       2.00000          -0.275487           -7.49639
     87       0.00000          -0.118814           -3.23309
     88       0.00000          -0.069481           -1.89068
     89       0.00000          -0.069481           -1.89068
     90       0.00000           0.012141            0.33036
     91       0.00000           0.123130            3.35054
     92       0.00000           0.369767           10.06187
     93       0.00000           0.388768           10.57892
     94       0.00000           0.388769           10.57893
     95       0.00000           0.393562           10.70938
     96       0.00000           0.393563           10.70938
     97       0.00000           0.396647           10.79331
     98       0.00000           0.545191           14.83540
     99       0.00000           0.631990           17.19731
    100       0.00000           0.674747           18.36079
    101       0.00000           0.750011           20.40885
    102       0.00000           0.831010           22.61294
    103       0.00000           0.836323           22.75752
    104       0.00000           0.836323           22.75752
    105       0.00000           0.848283           23.08294
    106       0.00000           0.852414           23.19536
    107       0.00000           0.854980           23.26519
    108       0.00000           0.854980           23.26520
    109       0.00000           1.003665           27.31112
    110       0.00000           1.003665           27.31112

  What follows are estimated values for band gap, HOMO, LUMO, etc.
  | They are estimated on a discrete k-point grid and not necessarily exact.
  | For converged numbers, create a DOS and/or band structure plot on a denser k-grid.

  Highest occupied state (VBM) at     -5.38126368 eV (relative to internal zero)
  | Occupation number:      2.00000000
  | K-point:      88 at    0.500000    0.500000    0.000000 (in units of recip. lattice)

  Lowest unoccupied state (CBM) at    -4.27193918 eV (relative to internal zero)
  | Occupation number:      0.00000001
  | K-point:      88 at    0.500000    0.500000    0.000000 (in units of recip. lattice)

  ESTIMATED overall HOMO-LUMO gap:      1.10932450 eV between HOMO at k-point 88 and LUMO at k-point 88
  | This appears to be a direct band gap.
  The gap value is above 0.2 eV. Unless you are using a very sparse k-point grid,
  this system is most likely an insulator or a semiconductor.

  | Chemical Potential                          :    -4.31306503 eV
  | Note that, for insulating systems, the printed 'chemical potential' value is not uniquely defined.
  | It can be anywhere in the energy gap, as long as it correctly separates occupied and unoccupied states.
  | In systems with a gap, the physically relevant chemical potential is the VBM or HOMO.

  Self-consistency cycle converged.


------------------------------------------------------------
  End self-consistency iteration #    16       :  max(cpu_time)    wall_clock(cpu1)
  | Time for this iteration                     :      627.684 s         627.687 s
  | Charge density update                       :        0.000 s           0.000 s
  | Density mixing                              :        0.006 s           0.006 s
  | Hartree multipole update                    :        0.003 s           0.003 s
  | Hartree multipole summation                 :        1.323 s           1.323 s
  | Integration                                 :        2.580 s           2.580 s
  | Fock matrix evaluation                      :      622.984 s         622.986 s
  | Solution of K.-S. eqns.                     :        0.788 s           0.788 s
  | Total energy evaluation                     :        0.000 s           0.000 s

  Partial memory accounting:
  | Current value for overall tracked memory usage:
  |   Minimum:     1187.853 MB (on task 0)
  |   Maximum:     1187.853 MB (on task 0)
  |   Average:     1187.853 MB
  | Peak value for overall tracked memory usage:
  |   Minimum:     5360.756 MB (on task 0 after allocating ovlp3fn2)
  |   Maximum:     5360.756 MB (on task 0 after allocating ovlp3fn2)
  |   Average:     5360.756 MB
  | Largest tracked array allocation so far:
  |   Minimum:     4171.415 MB (ovlp3fn_nosplit%dat on task 0)
  |   Maximum:     4171.415 MB (ovlp3fn_nosplit%dat on task 0)
  |   Average:     4171.415 MB
  Note:  These values currently only include a subset of arrays which are explicitly tracked.
  The "true" memory usage will be greater.
------------------------------------------------------------

  Energy and forces in a compact form:
  | Total energy uncorrected      :         -0.104066048498222E+07 eV
  | Total energy corrected        :         -0.104066048498222E+07 eV  <-- do not rely on this value for anything but (periodic) metals
  | Electronic free energy        :         -0.104066048498222E+07 eV

  ------------------------------------ 
  Start decomposition of the XC Energy 
  ------------------------------------ 
  X and C from original XC functional choice 
  Hartree-Fock Energy :       -180.129128697 Ha          -4901.562980631 eV
  X Energy            :       -725.669671364 Ha         -19746.476447471 eV
  C Energy            :        -10.144340478 Ha           -276.041549242 eV
  XC Energy w/o HF    :       -555.684883144 Ha         -15120.955016082 eV
  Total XC Energy     :       -735.814011842 Ha         -20022.517996714 eV
  ------------------------------------ 
  LDA X and C from self-consistent density 
  X Energy LDA        :       -696.274810699 Ha         -18946.601591583 eV
  C Energy LDA        :        -17.445020257 Ha           -474.703153829 eV
  ------------------------------------ 
  End decomposition of the XC Energy 
  ------------------------------------ 

------------------------------------------------------------

------------------------------------------------------------------------------
  Final output of selected total energy values:

  The following output summarizes some interesting total energy values
  at the end of a run (AFTER all relaxation, molecular dynamics, etc.).

  | Total energy of the DFT / Hartree-Fock s.c.f. calculation      :       -1040660.484982216 eV
  | Final zero-broadening corrected energy (caution - metals only) :       -1040660.484982216 eV
  | For reference only, the value of 1 Hartree used in FHI-aims is :             27.211384500 eV
  | For reference only, the overall average (free atom contribution
  | + realspace contribution) of the electrostatic potential after
  | s.c.f. convergence is                                          :            -22.834727049 eV

  Before relying on these values, please be sure to understand exactly which
  total energy value is referred to by a given number. Different objects may
  all carry the same name 'total energy'. Definitions:

  Total energy of the DFT / Hartree-Fock s.c.f. calculation:
  | Note that this energy does not include ANY quantities calculated after the
  | s.c.f. cycle, in particular not ANY RPA, MP2, etc. many-body perturbation terms.

  Final zero-broadening corrected energy:
  | For metallic systems only, a broadening of the occupation numbers at the Fermi
  | level can be extrapolated back to zero broadening by an electron-gas inspired
  | formula. For all systems that are not real metals, this value can be
  | meaningless and should be avoided.

------------------------------------------------------------------------------
  Methods described in the following list of references were used in this FHI-aims run.
  If you publish the results, please make sure to cite these reference if they apply.
  FHI-aims is an academic code, and for our developers (often, Ph.D. students
  and postdocs), scientific credit in the community is essential.
  Thank you for helping us!

  For any use of FHI-aims, please cite:

    Volker Blum, Ralf Gehrke, Felix Hanke, Paula Havu, Ville Havu,
    Xinguo Ren, Karsten Reuter, and Matthias Scheffler
    'Ab initio molecular simulations with numeric atom-centered orbitals'
    Computer Physics Communications 180, 2175-2196 (2009)
    http://doi.org/10.1016/j.cpc.2009.06.022


  For Hartree-Fock, hybrid functionals, or many-body perturbation theory used in your run, please cite:

    Xinguo Ren, Patrick Rinke, Volker Blum, Juergen Wieferink, Alex Tkatchenko,
    Andrea Sanfilippo, Karsten Reuter, and Matthias Scheffler,
    'Resolution-of-identity approach to Hartree-Fock, hybrid density functionals,
    RPA, MP2, and GW with numeric atom-centered orbital basis functions'
    New Journal of Physics 14, 053020 (2012).
    http://doi.org/10.1088/1367-2630/14/5/053020


  The provided symmetry information was generated with SPGlib:

    Atsushi Togo, Yusuke Seto, Dimitar Pashov
    SPGlib 1.7.3 obtained from http://spglib.sourceforge.net
    Copyright (C) 2008 Atsushi Togo


  The ELSI infrastructure was used in your run to solve the Kohn-Sham electronic structure.
  Please check out http://elsi-interchange.org to learn more.
  If scalability is important for your project, please acknowledge ELSI by citing:

    V. W-z. Yu, F. Corsetti, A. Garcia, W. P. Huhn, M. Jacquelin, W. Jia,
    B. Lange, L. Lin, J. Lu, W. Mi, A. Seifitokaldani, A. Vazquez-Mayagoitia,
    C. Yang, H. Yang, and V. Blum
    'ELSI: A unified software interface for Kohn-Sham electronic structure solvers'
    Computer Physics Communications 222, 267-285 (2018).
    http://doi.org/10.1016/j.cpc.2017.09.007


  For the real-space grid partitioning and parallelization used in this calculation, please cite:

    Ville Havu, Volker Blum, Paula Havu, and Matthias Scheffler,
    'Efficient O(N) integration for all-electron electronic structure calculation'
    'using numerically tabulated basis functions'
    Journal of Computational Physics 228, 8367-8379 (2009).
    http://doi.org/10.1016/j.jcp.2009.08.008


  The high-level electronic structure method used in your calculation
  employed our efficient localized resolution of identity for the Coulomb operator.
  Some calculations, especially large-scale hybrid density functional theory,
  are only possible thanks to this development. For this feature, please cite:

    Arvid Ihrig, Juergen Wieferink, Igor Ying Zhang, Matti Ropo, Xinguo Ren,
    Patrick Rinke, Matthias Scheffler, and Volker Blum,
    'Accurate localized resolution of identity approach for linear-scaling
    hybrid density functionals and for many-body perturbation theory'
    New Journal of Physics 117, 093020 (2015).
    http://doi.org/10.1088/1367-2630/17/9/093020

  Of course, there are many other important community references, e.g., those cited in the
  above references. Our list is limited to references that describe implementations in the
  FHI-aims code. The reason is purely practical (length of this list) - please credit others as well.

 * A warning was issued further up regarding the accuracy of onsite integrals.
   An integral with a negative eigenvalue was among the flagged integrals.
   In most standard situations, this warning is probably harmless.
   If needed, this can be verified by adjusting the radial_multiplier flag.

------------------------------------------------------------
          Leaving FHI-aims.
          Date     :  20241129, Time     :  101822.303

          Computational steps:
          | Number of self-consistency cycles          :           16
          | Number of SCF (re)initializations          :            1

          Detailed time accounting                     :  max(cpu_time)    wall_clock(cpu1)
          | Total time                                  :    10980.049 s       10981.679 s
          | Preparation time                            :        0.400 s           0.638 s
          | Boundary condition initalization            :        0.107 s           0.113 s
          | Grid partitioning                           :        0.269 s           0.310 s
          | Preloading free-atom quantities on grid     :        1.432 s           1.468 s
          | Free-atom superposition energy              :        0.146 s           0.148 s
          | Total time for integrations                 :       45.275 s          45.348 s
          | Product basis setup: Total time             :      607.548 s         607.631 s
          | Total time evaluating exchange matrix       :    10212.237 s       10212.268 s
          | Total time for solution of K.-S. equations  :       13.449 s          13.595 s
          | Total time for density update               :       78.147 s          78.148 s
          | Total time for mixing                       :        0.081 s           0.082 s
          | Total time for Hartree multipole update     :        0.045 s           0.046 s
          | Total time for Hartree multipole sum        :       20.799 s          20.802 s
          | Total time for total energy evaluation      :        0.006 s           0.014 s
          | Total time for scaled ZORA corrections      :        0.000 s           0.000 s

          Partial memory accounting:
          | Residual value for overall tracked memory usage across tasks:     0.000000 MB (should be 0.000000 MB)
          | Peak values for overall tracked memory usage:
          |   Minimum:     5360.756 MB (on task 0 after allocating ovlp3fn2)
          |   Maximum:     5360.756 MB (on task 0 after allocating ovlp3fn2)
          |   Average:     5360.756 MB
          | Largest tracked array allocation:
          |   Minimum:     4171.415 MB (ovlp3fn_nosplit%dat on task 0)
          |   Maximum:     4171.415 MB (ovlp3fn_nosplit%dat on task 0)
          |   Average:     4171.415 MB
          Note:  These values currently only include a subset of arrays which are explicitly tracked.
          The "true" memory usage will be greater.

          Have a nice day.
------------------------------------------------------------
