------------------------------------------------------------
          Invoking FHI-aims ...

          When using FHI-aims, please cite the following reference:

            Volker Blum, Ralf Gehrke, Felix Hanke, Paula Havu,
            Ville Havu, Xinguo Ren, Karsten Reuter, and Matthias Scheffler,
            'Ab Initio Molecular Simulations with Numeric Atom-Centered Orbitals',
            Computer Physics Communications 180, 2175-2196 (2009)

          In addition, many other developments in FHI-aims are likely important for
          your particular application. A partial list of references is given at the end of
          this file. Thank you for giving credit to the authors of these developments.

          For any questions about FHI-aims, please visit our slack channel at

            https://fhi-aims.slack.com

          and our main development and support site at

            https://aims-git.rz-berlin.mpg.de .

          The latter site, in particular, has a wiki to collect information, as well
          as an issue tracker to log discussions, suggest improvements, and report issues
          or bugs. https://aims-git.rz-berlin.mpg.de is also the main development site
          of the project and all new and updated code versions can be obtained there.
          Please send an email to aims-coordinators@fhi-berlin.mpg.de and we will add
          you to these sites. They are for you and everyone is welcome there.

------------------------------------------------------------



  Date     :  20241129, Time     :  041749.784
  Time zero on CPU 1             :   0.130638000000000E+00  s.
  Internal wall clock time zero  :           502085869.784  s.

  FHI-aims created a unique identifier for this run for later identification
  aims_uuid : FF6EA7F3-28C7-435B-AF40-E867DF58496F

  Build configuration of the current instance of FHI-aims
  -------------------------------------------------------
  FHI-aims version      : 221103
  Commit number         : GITDIR-NOTFOUND
  CMake host system     : Linux-3.10.0-1160.59.1.el7.x86_64
  CMake version         : 3.17.5
  Fortran compiler      : /home/spack/spack/opt/spack/linux-centos7-broadwell/gcc-8.2.0/intel-oneapi-mpi-2021.13.1-tc3o22m5brhwlepjze7ymovtbug6ollk/mpi/2021.13/bin/mpiifort (Intel) version 20.2.8.20221119
  Fortran compiler flags: -O3 -ip -fp-model precise
  C compiler            : /home/spack/spack/opt/spack/linux-centos7-broadwell/gcc-8.2.0/intel-oneapi-compilers-2023.0.0-qdtyksft5ugoazragh7yusjezd4gp7hm/compiler/2023.0.0/linux/bin/intel64/icc (Intel) version 20.2.8.20221119
  C compiler flags      : -O3 -ip -fp-model precise -std=gnu99
  HIP compiler          :
  HIP compiler flags    :
  HIP GPU arch          :
  Using MPI
  Using ScaLAPACK
  Using LibXC
  Using i-PI
  Using RLSY
  Linking against: /home/spack/spack/opt/spack/linux-centos7-broadwell/gcc-8.2.0/intel-oneapi-mkl-2024.2.1-2ept5lpbp5bastej6jsrfm45y5ab2lpn/mkl/latest/lib/intel64/libmkl_intel_lp64.so
                   /home/spack/spack/opt/spack/linux-centos7-broadwell/gcc-8.2.0/intel-oneapi-mkl-2024.2.1-2ept5lpbp5bastej6jsrfm45y5ab2lpn/mkl/latest/lib/intel64/libmkl_sequential.so
                   /home/spack/spack/opt/spack/linux-centos7-broadwell/gcc-8.2.0/intel-oneapi-mkl-2024.2.1-2ept5lpbp5bastej6jsrfm45y5ab2lpn/mkl/latest/lib/intel64/libmkl_core.so
                   /home/spack/spack/opt/spack/linux-centos7-broadwell/gcc-8.2.0/intel-oneapi-mkl-2024.2.1-2ept5lpbp5bastej6jsrfm45y5ab2lpn/mkl/latest/lib/intel64/libmkl_blacs_intelmpi_lp64.so
                   /home/spack/spack/opt/spack/linux-centos7-broadwell/gcc-8.2.0/intel-oneapi-mkl-2024.2.1-2ept5lpbp5bastej6jsrfm45y5ab2lpn/mkl/latest/lib/intel64/libmkl_scalapack_lp64.so

  Using        1 parallel tasks.
  Task        0 on host f001 reporting.

  Performing system and environment tests:
  | Environment variable OMP_NUM_THREADS correctly set to 1.
  | Checking for ScaLAPACK...
  | Testing pdtran()...
  | All pdtran() tests passed.

  Obtaining array dimensions for all initial allocations:
  
  -----------------------------------------------------------------------
  Parsing control.in (first pass over file, find array dimensions only).
  The contents of control.in will be repeated verbatim below
  unless switched off by setting 'verbatim_writeout .false.' .
  in the first line of control.in .
  -----------------------------------------------------------------------
  
  xc		pbe
  spin		none
  relativistic	atomic_zora scalar
  charge		0.
  k_grid 		14 14 14
  exx_band_structure_version 1
  
  output band 0.0 0.0 0.0 0.0 0.5 0.0 31 Gamma X
  output band 0.0 0.5 0.0 0.5 0.5 0.0 31 X M
  output band 0.5 0.5 0.0 0.0 0.0 0.0 31 M Gamma
  output band 0.0 0.0 0.0 0.0 0.0 0.5 31 Gamma Z
  output band 0.0 0.0 0.5 0.0 0.5 0.5 31 Z R
  output band 0.0 0.5 0.5 0.5 0.5 0.5 31 R A
  output band 0.5 0.5 0.5 0.0 0.0 0.5 31 A Z
  output band 0.0 0.0 0.5 0.5 0.5 0.5 31 Z A
  output band 0.5 0.5 0.5 0.5 0.5 0.0 31 A M
  
  output dos_tetrahedron -18. 0. 2000.
  ################################################################################
  #
  #  FHI-aims code project
  #  VB, Fritz-Haber Institut, 2009
  #
  #  Suggested "light" defaults for Pt atom (to be pasted into control.in file)
  #  Be sure to double-check any results obtained with these settings for post-processing,
  #  e.g., with the "tight" defaults and larger basis sets.
  #
  ################################################################################
    species        Pt
  #     global species definitions
      nucleus             78
      mass                195.084
  #
      l_hartree           4
  #
      cut_pot             3.5  1.5  1.0
      basis_dep_cutoff    1e-4
  #
      radial_base         72 5.0
      radial_multiplier   1
      angular_grids specified
        division   0.4222   50
        division   0.9557  110
        division   1.2477  194
        division   1.5393  302
  #      division   1.9382  434
  #      division   2.0887  590
  #      division   2.1534  770
  #      division   2.2208  974
  #      division   2.6985 1202
  #      outer_grid    974
        outer_grid    302
  ################################################################################
  #
  #  Definition of "minimal" basis
  #
  ################################################################################
  #     valence basis states
      valence      6  s   1.
      valence      5  p   6.
      valence      5  d   9.
      valence      4  f  14.
  #     ion occupancy
      ion_occ     6  s   0.
      ion_occ     5  p   6.
      ion_occ     5  d   8.
      ion_occ     4  f   14.
  ################################################################################
  #
  #  Suggested additional basis functions. For production calculations,
  #  uncomment them one after another (the most important basis functions are
  #  listed first).
  #
  #  Constructed for dimers: 2.00, 2.275, 2.75, 3.75 AA
  #
  ################################################################################
  #  "First tier" - max. impr. -193.66  meV, min. impr. -18.25 meV
       hydro 4 f 7.4
       ionic 6 p auto
  #     hydro 5 g 9.8
       ionic 6 s auto
       hydro 3 d 2.6
  #  "Second tier" - max. impr. -10.25  meV, min. impr. -0.56 meV
  #     hydro 6 h 14
  #     hydro 5 f 14
  #     hydro 4 d 4
  #     hydro 3 p 3.3
  #     hydro 5 g 16.4
  #     hydro 1 s 0.5
  #  "Third tier" - max. impr. -0.72  meV, min. impr. -0.18 meV
  #     hydro 5 f 9
  #     ionic 5 d auto
  #     hydro 6 h 16.4
  #     hydro 5 g 12.4
  #     hydro 5 g 34
  #     hydro 5 s 13.6
  #     hydro 5 p 10.4
  #  Further functions: ################################################################################
  #
  #  FHI-aims code project
  #  VB, Fritz-Haber Institut, 2009
  #
  #  Suggested "light" defaults for O atom (to be pasted into control.in file)
  #  Be sure to double-check any results obtained with these settings for post-processing,
  #  e.g., with the "tight" defaults and larger basis sets.
  #
  ################################################################################
    species        O
  #     global species definitions
      nucleus             8
      mass                15.9994
  #
      l_hartree           4
  #
      cut_pot             3.5  1.5  1.0
      basis_dep_cutoff    1e-4
  #
      radial_base         36 5.0
      radial_multiplier   1
       angular_grids specified
        division   0.2659   50
        division   0.4451  110
        division   0.6052  194
        division   0.7543  302
  #      division   0.8014  434
  #      division   0.8507  590
  #      division   0.8762  770
  #      division   0.9023  974
  #      division   1.2339 1202
  #      outer_grid 974
        outer_grid 302
  ################################################################################
  #
  #  Definition of "minimal" basis
  #
  ################################################################################
  #     valence basis states
      valence      2  s   2.
      valence      2  p   4.
  #     ion occupancy
      ion_occ      2  s   1.
      ion_occ      2  p   3.
  ################################################################################
  #
  #  Suggested additional basis functions. For production calculations,
  #  uncomment them one after another (the most important basis functions are
  #  listed first).
  #
  #  Constructed for dimers: 1.0 A, 1.208 A, 1.5 A, 2.0 A, 3.0 A
  #
  ################################################################################
  #  "First tier" - improvements: -699.05 meV to -159.38 meV
       hydro 2 p 1.8
       hydro 3 d 7.6
       hydro 3 s 6.4
  #  "Second tier" - improvements: -49.91 meV to -5.39 meV
  #     hydro 4 f 11.6
  #     hydro 3 p 6.2
  #     hydro 3 d 5.6
  #     hydro 5 g 17.6
  #     hydro 1 s 0.75
  #  "Third tier" - improvements: -2.83 meV to -0.50 meV
  #     ionic 2 p auto
  #     hydro 4 f 10.8
  #     hydro 4 d 4.7
  #     hydro 2 s 6.8
  #  "Fourth tier" - improvements: -0.40 meV to -0.12 meV
  #     hydro 3 p 5
  #     hydro 3 s 3.3
  #     hydro 5 g 15.6
  #     hydro 4 f 17.6
  #     hydro 4 d 14
  # Further basis functions - -0.08 meV and below
  #     hydro 3 s 2.1
  #     hydro 4 d 11.6
  #     hydro 3 p 16
  #     hydro 2 s 17.2
  
  -----------------------------------------------------------------------
  Completed first pass over input file control.in .
  -----------------------------------------------------------------------
  
  
  -----------------------------------------------------------------------
  Parsing geometry.in (first pass over file, find array dimensions only).
  The contents of geometry.in will be repeated verbatim below
  unless switched off by setting 'verbatim_writeout .false.' .
  in the first line of geometry.in .
  -----------------------------------------------------------------------
  
  #
  # This is the geometry file that corresponds to the current relaxation step.
  # If you do not want this file to be written, set the "write_restart_geometry" flag to .false.
  #  aims_uuid : DB20CF38-BE3F-4576-A1C7-7E976C51CEE1
  #
  lattice_vector      3.14971754     -0.00000000      0.00000000
  lattice_vector      0.00000000      3.14972819     -0.00000000
  lattice_vector     -0.00000000     -0.00000000      5.38230440
  atom       0.00019346      1.57470539      2.69115164 Pt
  atom       1.57479913      0.00051441      0.00000045 Pt
  atom      -0.00006691     -0.00017790      1.34557804 O
  atom      -0.00006691     -0.00017781      4.03672647 O
  #
  # What follows is the current estimated Hessian matrix constructed by the BFGS algorithm.
  # This is NOT the true Hessian matrix of the system.
  # If you do not want this information here, switch it off using the "hessian_to_restart_geometry" keyword.
  #
  trust_radius             0.2000000030
  hessian_file
  
  -----------------------------------------------------------------------
  Completed first pass over input file geometry.in .
  -----------------------------------------------------------------------
  

  Basic array size parameters:
  | Number of species                 :        2
  | Number of atoms                   :        4
  | Number of lattice vectors         :        3
  | Max. basis fn. angular momentum   :        3
  | Max. atomic/ionic basis occupied n:        6
  | Max. number of basis fn. types    :        3
  | Max. radial fns per species/type  :       14
  | Max. logarithmic grid size        :     1487
  | Max. radial integration grid size :       72
  | Max. angular integration grid size:      302
  | Max. angular grid division number :        8
  | Radial grid for Hartree potential :     1487
  | Number of spin channels           :        1

------------------------------------------------------------
          Reading file control.in.
------------------------------------------------------------
  XC: Using PBE gradient-corrected functionals.
  Spin treatment: No spin polarisation.
  Scalar relativistic treatment of kinetic energy: on-site free-atom approximation to ZORA.
  Charge =   0.000000E+00: Neutral system requested explicitly.
  Found k-point grid:        14        14        14

  Plot band    1
  | begin  0.000000  0.000000  0.000000
  | end    0.000000  0.500000  0.000000
  | number of points:   31

  Plot band    2
  | begin  0.000000  0.500000  0.000000
  | end    0.500000  0.500000  0.000000
  | number of points:   31

  Plot band    3
  | begin  0.500000  0.500000  0.000000
  | end    0.000000  0.000000  0.000000
  | number of points:   31

  Plot band    4
  | begin  0.000000  0.000000  0.000000
  | end    0.000000  0.000000  0.500000
  | number of points:   31

  Plot band    5
  | begin  0.000000  0.000000  0.500000
  | end    0.000000  0.500000  0.500000
  | number of points:   31

  Plot band    6
  | begin  0.000000  0.500000  0.500000
  | end    0.500000  0.500000  0.500000
  | number of points:   31

  Plot band    7
  | begin  0.500000  0.500000  0.500000
  | end    0.000000  0.000000  0.500000
  | number of points:   31

  Plot band    8
  | begin  0.000000  0.000000  0.500000
  | end    0.500000  0.500000  0.500000
  | number of points:   31

  Plot band    9
  | begin  0.500000  0.500000  0.500000
  | end    0.500000  0.500000  0.000000
  | number of points:   31
  Calculating density of states with
  | energy interval :-18.000000  0.000000
  | points & tetrahedron method :  2000
 
  Reading configuration options for species Pt                  .
  | Found nuclear charge :  78.0000
  | Found atomic mass :    195.084000000000      amu
  | Found l_max for Hartree potential  :   4
  | Found cutoff potl. onset [A], width [A], scale factor :    3.50000    1.50000    1.00000
  | Threshold for basis-dependent cutoff potential is   0.100000E-03
  | Found data for basic radial integration grid :    72 points, outermost radius =    5.000 A
  | Found multiplier for basic radial grid :   1
  | Found angular grid specification: user-specified.
  | Specified grid contains     5 separate shells.
  | Check grid settings after all constraints further below.
  | Found free-atom valence shell :  6 s   1.000
  | Found free-atom valence shell :  5 p   6.000
  | Found free-atom valence shell :  5 d   9.000
  | Found free-atom valence shell :  4 f  14.000
  | Found free-ion valence shell :  6 s   0.000
  | Found free-ion valence shell :  5 p   6.000
  | Found free-ion valence shell :  5 d   8.000
  | Found free-ion valence shell :  4 f  14.000
  | Found hydrogenic basis function :  4 f   7.400
  | Found ionic basis function :  6 p , default cutoff radius.
  | Found ionic basis function :  6 s , default cutoff radius.
  | Found hydrogenic basis function :  3 d   2.600
  Species Pt                  : Missing cutoff potential type.
  Defaulting to exp(1/x)/(1-x)^2 type cutoff potential.
  Species Pt: No 'logarithmic' tag. Using default grid for free atom:
  | Default logarithmic grid data [bohr] : 0.1000E-03 0.1000E+03 0.1012E+01
  | Will include ionic basis functions of  2.0-fold positive Pt                   ion.
  Species Pt: On-site basis accuracy parameter (for Gram-Schmidt orthonormalisation) not specified.
  Using default value basis_acc =  0.1000000E-03.
  Species Pt                  : Using default innermost maximum threshold i_radial=  2 for radial functions.
  Species Pt                  : Default cutoff onset for free atom density etc. : 0.35000000E+01 AA.
  Species Pt                  : Basic radial grid will be enhanced according to radial_multiplier =   1, to contain    72 grid points.
 
  Reading configuration options for species O                   .
  | Found nuclear charge :   8.0000
  | Found atomic mass :    15.9994000000000      amu
  | Found l_max for Hartree potential  :   4
  | Found cutoff potl. onset [A], width [A], scale factor :    3.50000    1.50000    1.00000
  | Threshold for basis-dependent cutoff potential is   0.100000E-03
  | Found data for basic radial integration grid :    36 points, outermost radius =    5.000 A
  | Found multiplier for basic radial grid :   1
  | Found angular grid specification: user-specified.
  | Specified grid contains     5 separate shells.
  | Check grid settings after all constraints further below.
  | Found free-atom valence shell :  2 s   2.000
  | Found free-atom valence shell :  2 p   4.000
  | Found free-ion valence shell :  2 s   1.000
  | Found free-ion valence shell :  2 p   3.000
  | Found hydrogenic basis function :  2 p   1.800
  | Found hydrogenic basis function :  3 d   7.600
  | Found hydrogenic basis function :  3 s   6.400
  Species O                   : Missing cutoff potential type.
  Defaulting to exp(1/x)/(1-x)^2 type cutoff potential.
  Species O : No 'logarithmic' tag. Using default grid for free atom:
  | Default logarithmic grid data [bohr] : 0.1000E-03 0.1000E+03 0.1012E+01
  Species O : On-site basis accuracy parameter (for Gram-Schmidt orthonormalisation) not specified.
  Using default value basis_acc =  0.1000000E-03.
  Species O                   : Using default innermost maximum threshold i_radial=  2 for radial functions.
  Species O                   : Default cutoff onset for free atom density etc. : 0.35000000E+01 AA.
  Species O                   : Basic radial grid will be enhanced according to radial_multiplier =   1, to contain    36 grid points.
 
  Finished reading input file 'control.in'.
 
------------------------------------------------------------


------------------------------------------------------------
          Reading geometry description geometry.in.
------------------------------------------------------------
 * Large trust radius value found - resetting to the current value of max_atomic_move,      0.20000000 A.
  Found keyword 'hessian_file', indicating that this is the continuation of a structure optimization.
  However, the control.in file does not request the geometry to be optimized.
  Ignoring the request for a file 'hessian.aims' to be present.
  | The smallest distance between any two atoms is         2.07140166 AA.
  | The first atom of this pair is atom number                      3 .
  | The second atom of this pair is atom number                     1 .
  | Wigner-Seitz cell of the first atom image           0     1     0 .
  | (The Wigner-Seitz cell of the second atom is 0 0 0  by definition.)

  Symmetry information by spglib:
  | Precision set to  0.1E-04
  | Number of Operations  : 2
  | Space group           : 6
  | International         : Pm
  | Schoenflies           : Cs^1
  Input structure read successfully.
  The structure contains        4 atoms,  and a total of        172.000 electrons.

  Input geometry:
  | Unit cell:
  |        3.14971754        0.00000000        0.00000000
  |        0.00000000        3.14972819        0.00000000
  |        0.00000000        0.00000000        5.38230440
  | Atomic structure:
  |       Atom                x [A]            y [A]            z [A]
  |    1: Species Pt            0.00019346        1.57470539        2.69115164
  |    2: Species Pt            1.57479913        0.00051441        0.00000045
  |    3: Species O            -0.00006691       -0.00017790        1.34557804
  |    4: Species O            -0.00006691       -0.00017781        4.03672647

  Lattice parameters for 3D lattice (in Angstroms) :     3.149718    3.149728    5.382304
  Angle(s) between unit vectors (in degrees)       :    90.000000   90.000000   90.000000


  Quantities derived from the lattice vectors (in Angstrom^-1):
  | Reciprocal lattice vector 1:  1.994841  0.000000  0.000000
  | Reciprocal lattice vector 2:  0.000000  1.994834  0.000000
  | Reciprocal lattice vector 3:  0.000000  0.000000  1.167378
  | Unit cell volume                               :   0.533965E+02  Angstrom^3

  Fractional coordinates:
                         L1                L2                L3
       atom_frac         0.00006142        0.49994961        0.49999990  Pt
       atom_frac         0.49998106        0.00016332        0.00000008  Pt
       atom_frac        -0.00002124       -0.00005648        0.25000036  O
       atom_frac        -0.00002124       -0.00005645        0.74999966  O

 
  Finished reading input file 'geometry.in'.
 

 
  Consistency checks for stacksize environment parameter are next.
 
  | Maximum stacksize for task 0: unlimited
  | Current stacksize for task 0: unlimited
 
  Consistency checks for the contents of control.in are next.
 
  MPI_IN_PLACE appears to work with this MPI implementation.
  | Keeping use_mpi_in_place .true. (see manual).
  Target number of points in a grid batch is not set. Defaulting to  100
  Method for grid partitioning is not set. Defaulting to parallel hash+maxmin partitioning.
  Batch size limit is not set. Defaulting to    200
  By default, will store active basis functions for each batch.
  If in need of memory, prune_basis_once .false. can be used to disable this option.
  communication_type for Hartree potential was not specified.
  Defaulting to calc_hartree .
  Defaulting to Pulay charge density mixer.
  Pulay mixer: Number of relevant iterations not set.
  Defaulting to    8 iterations.
  Pulay mixer: Number of initial linear mixing iterations not set.
  Defaulting to    0 iterations.
  Work space size for distributed Hartree potential not set.
  Defaulting to   0.200000E+03 MB.
  Mixing parameter for charge density mixing has not been set.
  Using default: charge_mix_param =     0.0500.
  The mixing parameter will be adjusted in iteration number     2 of the first full s.c.f. cycle only.
  Algorithm-dependent basis array size parameters:
  | n_max_pulay                         :        8
  Maximum number of self-consistency iterations not provided.
  Presetting  1000 iterations.
  Presetting      1001 iterations before the initial mixing cycle
  is restarted anyway using the sc_init_iter criterion / keyword.
  Presetting a factor      1.000 between actual scf density residual
  and density convergence criterion sc_accuracy_rho below which sc_init_iter
  takes no effect.
 * No s.c.f. convergence criteria (sc_accuracy_*) were provided in control.in.
 * The run will proceed with a reasonable default guess, but please check whether.
 * the s.c.f. cycles seem to take too much or too little time.
  Calculation of forces was not defined in control.in. No forces will be calculated.
  Geometry relaxation not requested: no relaxation will be performed.
 * Notice: The s.c.f. convergence criterion sc_accuracy_rho was not provided.
 * We used to stop in this case, and ask the user to provide reasonable
 * scf convergence criteria. However, this led some users to employ criteria
 * that led to extremely long run times, e.g., for simple relaxation.
 * We now preset a default value for sc_accuracy_rho if it is not set.
 * You may still wish to check if this setting is too tight or too loose for your needs.
 * Based on n_atoms and forces and force-correction status, FHI-aims chose sc_accuracy_rho =  0.100000E-05 .
  No accuracy limit for integral partition fn. given. Defaulting to  0.1000E-14.
  No threshold value for u(r) in integrations given. Defaulting to  0.1000E-05.
  No occupation type (smearing scheme) given. Defaulting to Gaussian broadening, width =  0.1000E-01 eV.
  The width will be adjusted in iteration number     2 of the first full s.c.f. cycle only.
  S.C.F. convergence parameters will be adjusted in iteration number     2 of the first full s.c.f. cycle only.
  No accuracy for occupation numbers given. Defaulting to  0.1000E-12.
  No threshold value for occupation numbers given. Defaulting to  0.0000E+00.
  No accuracy for fermi level given. Defaulting to  0.1000E-19.
  Maximum # of iterations to find E_F not set. Defaulting to  200.
  Preferred method for the eigenvalue solver ('KS_method') not specified in 'control.in'.
  Defaulting to serial version LAPACK (via ELSI).
  Will not use alltoall communication since running on < 1024 CPUs.
  Threshold for basis singularities not set.
  Default threshold for basis singularities:  0.1000E-04
  partition_type (choice of integration weights) for integrals was not specified.
  | Using a version of the partition function of Stratmann and coworkers ('stratmann_sparse').
  | At each grid point, the set of atoms used to build the partition table is smoothly restricted to
  | only those atoms whose free-atom density would be non-zero at that grid point.
  Partitioning for Hartree potential was not defined. Using partition_type for integrals.
  | Adjusted default value of keyword multip_moments_threshold to:       0.10000000E-11
  | This value may affect high angular momentum components of the Hartree potential in periodic systems.
  Angular momentum expansion for Kerker preconditioner not set explicitly.
  | Using default value of   0
  No explicit requirement for turning off preconditioner.
  | By default, it will be turned off when the charge convergence reaches
  | sc_accuracy_rho  =   0.100000E-05
  No special mixing parameter while Kerker preconditioner is on.
  Using default: charge_mix_param =     0.0500.
  No q(lm)/r^(l+1) cutoff set for long-range Hartree potential.
  | Using default value of  0.100000E-09 .
  | Verify using the multipole_threshold keyword.
  Defaulting to new monopole extrapolation.
  Density update method: automatic selection selected.
  Using density matrix based charge density update.
  Using density matrix based charge density update.
  Using packed matrix style: index .
  Defaulting to use time-reversal symmetry for k-point grid.
  Charge integration errors on the 3D integration grid will be compensated
  by explicit normalization and distribution of residual charges.
  Use the "compensate_multipole_errors" flag to change this behaviour.
  Set 'collect_eigenvectors' to be '.true.' for all serial calculations. This is mandatory.
  Set 'collect_eigenvectors' to be '.true.' for KS_method lapack_fast and serial.
 
  Consistency checks for the contents of geometry.in are next.
 

  Range separation radius for Ewald summation (hartree_convergence_parameter):      3.33836340 bohr.
  Number of empty states per atom not set in control.in - providing a guess from actual geometry.
  | Total number of empty states used during s.c.f. cycle:       24
  If you use a very high smearing, use empty_states (per atom!) in control.in to increase this value.
  * Since a DOS, bandstructure or SOC calculation was requested, the number of empty states requested was INCREASED.
  | Number of empty states (old):   48.00000
  | Number of empty states (new):   58.00000

  Structure-dependent array size parameters: 
  | Maximum number of distinct radial functions  :       24
  | Maximum number of basis functions            :      140
  | Number of Kohn-Sham states (occupied + empty):      115
------------------------------------------------------------

------------------------------------------------------------
          Preparing all fixed parts of the calculation.
------------------------------------------------------------
  Determining machine precision:
    2.225073858507201E-308
  Setting up grids for atomic and cluster calculations.

  Creating wave function, potential, and density for free atoms.
  Runtime choices for atomic solver:
  | atomic solver xc        : PBE
  | compute density gradient: 1
  | compute kinetic density : F

  Species: Pt

  List of occupied orbitals and eigenvalues:
    n    l              occ      energy [Ha]    energy [eV]
    1    0           2.0000     -3153.099128    -85800.1927
    2    0           2.0000      -515.585619    -14029.7985
    3    0           2.0000      -119.497959     -3251.7049
    4    0           2.0000       -25.565949      -695.6849
    5    0           2.0000        -3.732860      -101.5763
    6    0           1.0000        -0.202680        -5.5152
    2    1           6.0000      -445.949326    -12134.8986
    3    1           6.0000       -99.652350     -2711.6784
    4    1           6.0000       -19.101055      -519.7661
    5    1           6.0000        -2.050716       -55.8028
    3    2          10.0000       -78.240654     -2129.0365
    4    2          10.0000       -11.272849      -306.7498
    5    2           9.0000        -0.221200        -6.0192
    4    3          14.0000        -2.577894       -70.1481


  Species: O

  List of occupied orbitals and eigenvalues:
    n    l              occ      energy [Ha]    energy [eV]
    1    0           2.0000       -18.926989      -515.0296
    2    0           2.0000        -0.880247       -23.9527
    2    1           4.0000        -0.331514        -9.0210


  Adding cutoff potential to free-atom effective potential.
  Creating fixed part of basis set: Ionic, confined, hydrogenic.
 
  Pt                   ion:

  List of free ionic orbitals and eigenvalues:
    n    l      energy [Ha]    energy [eV]
    1    0     -3153.944388    -85823.1934
    2    0      -516.374474    -14051.2643
    3    0      -120.278274     -3272.9384
    4    0       -26.344243      -716.8633
    5    0        -4.507613      -122.6584
    2    1      -446.736765    -12156.3259
    3    1      -100.432254     -2732.9007
    4    1       -19.879176      -540.9399
    5    1        -2.820901       -76.7606
    3    2       -79.020090     -2150.2461
    4    2       -12.050716      -327.9167
    5    2        -0.950990       -25.8778
    4    3        -3.355307       -91.3026


  List of ionic basis orbitals and eigenvalues:
    n    l      energy [Ha]    energy [eV]    outer radius [A]
    6    1        -0.525532       -14.3005       4.562397
    6    0        -0.812649       -22.1133       4.562397

 
  Pt                   hydrogenic:
 
  List of hydrogenic basis orbitals: 
    n    l      effective z      eigenvalue [eV]  inner max. [A]     outer max. [A]     outer radius [A]   
    4    3         7.400000       -46.5648           1.146169           1.146169           4.506962
    3    2         2.600000        -9.9241           1.779842           1.779842           4.618515
 
 
  O                    hydrogenic:
 
  List of hydrogenic basis orbitals: 
    n    l      effective z      eigenvalue [eV]  inner max. [A]     outer max. [A]     outer radius [A]   
    2    1         1.800000       -10.9749           1.164242           1.164242           4.578029
    3    2         7.600000       -87.3180           0.624125           0.624125           3.251020
    3    0         6.400000       -61.9207           0.061167           1.081902           4.001998
 
  Creating atomic-like basis functions for current effective potential.

  Species Pt                  :

  List of atomic basis orbitals and eigenvalues:
    n    l      energy [Ha]    energy [eV]    outer radius [A]
    1    0     -3153.099128    -85800.1927       0.122365
    2    0      -515.585619    -14029.7985       0.321431
    3    0      -119.497959     -3251.7049       0.669333
    4    0       -25.565949      -695.6849       1.393787
    5    0        -3.732860      -101.5763       3.402290
    6    0        -0.202680        -5.5152       4.562397
    2    1      -445.949326    -12134.8986       0.333438
    3    1       -99.652350     -2711.6784       0.720273
    4    1       -19.101055      -519.7661       1.575030
    5    1        -2.050716       -55.8028       4.087050
    3    2       -78.240654     -2129.0365       0.765673
    4    2       -11.272849      -306.7498       1.915300
    5    2        -0.221200        -6.0192       4.506962
    4    3        -2.577894       -70.1481       3.402290


  Species O                   :

  List of atomic basis orbitals and eigenvalues:
    n    l      energy [Ha]    energy [eV]    outer radius [A]
    1    0       -18.926989      -515.0296       1.415765
    2    0        -0.880247       -23.9527       4.413171
    2    1        -0.331514        -9.0210       4.522403

  Assembling full basis from fixed parts.
  | Species Pt :   atomic orbital   1 s accepted.
  | Species Pt :   atomic orbital   2 s accepted.
  | Species Pt :   atomic orbital   3 s accepted.
  | Species Pt :   atomic orbital   4 s accepted.
  | Species Pt :   atomic orbital   5 s accepted.
  | Species Pt :   atomic orbital   6 s accepted.
  | Species Pt :    ionic orbital   6 s accepted.
  | Species Pt :   atomic orbital   2 p accepted.
  | Species Pt :   atomic orbital   3 p accepted.
  | Species Pt :   atomic orbital   4 p accepted.
  | Species Pt :   atomic orbital   5 p accepted.
  | Species Pt :    ionic orbital   6 p accepted.
  | Species Pt :   atomic orbital   3 d accepted.
  | Species Pt :   atomic orbital   4 d accepted.
  | Species Pt :   atomic orbital   5 d accepted.
  | Species Pt :    hydro orbital   3 d accepted.
  | Species Pt :   atomic orbital   4 f accepted.
  | Species Pt :    hydro orbital   4 f accepted.
  | Species O :   atomic orbital   1 s accepted.
  | Species O :    hydro orbital   3 s accepted.
  | Species O :   atomic orbital   2 s accepted.
  | Species O :   atomic orbital   2 p accepted.
  | Species O :    hydro orbital   2 p accepted.
  | Species O :    hydro orbital   3 d accepted.
 
  Basis size parameters after reduction:
  | Total number of radial functions:       24
  | Total number of basis functions :      140
 
  Per-task memory consumption for arrays in subroutine allocate_ext:
  |           9.140848MB.
  Testing on-site integration grid accuracy.
  |  Species  Function  <phi|h_atom|phi> (log., in eV)  <phi|h_atom|phi> (rad., in eV)
           1        1             -85800.1927430741             -85799.8488530887 ***
           1        2             -14029.7985141093             -14029.7919754462
           1        3              -3251.7049213582              -3251.7045800048
           1        4               -695.6848560016               -695.6848304306
           1        5               -101.5762915836               -101.5762888810
           1        6                 -5.5240480860                 -5.5271251387
           1        7                  6.6025004501                  6.5645021630 ***
           1        8             -12134.8985829961             -12134.8985814838
           1        9              -2711.6784185979              -2711.6784119706
           1       10               -519.7661471610               -519.7661411428
           1       11                -55.8028188823                -55.8028174382
           1       12                  0.7406633387                  0.7376657585
           1       13              -2129.0365177978              -2129.0365151313
           1       14               -306.7498264777               -306.7498229758
           1       15                 -6.0197227729                 -6.0199120643
           1       16                  7.2063060013                  7.1819750069
           1       17                -70.1480733271                -70.1480725137
           1       18                 21.3061252265                 21.3060942854
           2       19               -515.0295626295               -515.0294562738
           2       20                 15.1698434419                 15.1699322204
           2       21                -21.6038822678                -21.6039118105
           2       22                 -9.0211123393                 -9.0212703513
           2       23                  8.3047696391                  8.2854840999
           2       24                 45.8428042125                 45.8427461222
 * Note: Onsite integrals marked "***" above are less accurate than
 * onsite_accuracy_threshold =    0.03000 eV. Usually, this is harmless.
 * However, one integral did have a negative value. This integral could be important.
 * When in doubt, tighten the "radial" and/or "radial_multiplier" flags to check.

  Preparing densities etc. for the partition functions (integrals / Hartree potential).

  Preparations completed.
  max(cpu_time)          :      0.293 s.
  Wall clock time (cpu1) :      0.294 s.
------------------------------------------------------------

  Initializing index lists of integration centers etc. from given atomic structure:
  Mapping all atomic coordinates to central unit cell.

  Initializing the k-points
  Using symmetry for reducing the k-points
  | k-points reduced from:     2744 to     1376
  | Number of k-points                             :      1376
  The eigenvectors in the calculations are COMPLEX.
  | K-points in task   0:      1376
  | Number of basis functions in the Hamiltonian integrals :      2882
  | Number of basis functions in a single unit cell        :       140
  | Number of centers in hartree potential         :       975
  | Number of centers in hartree multipole         :       545
  | Number of centers in electron density summation:       384
  | Number of centers in basis integrals           :       419
  | Number of centers in integrals                 :       174
  | Number of centers in hamiltonian               :       392
  | Consuming       2967 KiB for k_phase.
  | Number of super-cells (origin) [n_cells]                     :         847
  | Number of super-cells (after PM_index) [n_cells]             :         138
  | Number of super-cells in hamiltonian [n_cells_in_hamiltonian]:         138
  | Size of matrix packed + index [n_hamiltonian_matrix_size] :      283751

------------------------------------------------------------
          Begin self-consistency loop: Initialization.

          Date     :  20241129, Time     :  041750.218
------------------------------------------------------------
  | Estimated reciprocal-space cutoff momentum G_max:         2.81681032 bohr^-1 .
  | Reciprocal lattice points for long-range Hartree potential:     140
  Partitioning the integration grid into batches with parallel hashing+maxmin method.
  | Number of batches:      512
  | Maximal batch size:      64
  | Minimal batch size:      59
  | Average batch size:      61.078
  | Standard deviation of batch sizes:       1.438

  Integration load balanced across     1 MPI tasks.
  Work distribution over tasks is as follows:
  Task     0 has      31272 integration points.
  Initializing partition tables, free-atom densities, potentials, etc. across the integration grid (initialize_grid_storage).
  | initialize_grid_storage: Actual outermost partition radius vs. multipole_radius_free
  | (-- VB: in principle, multipole_radius_free should be larger, hence this output)
  | Species        1: Confinement radius =              4.999999999999999 AA, multipole_radius_free =              5.031147476913517 AA.
  | Species        1: outer_partition_radius set to              5.031147476913517 AA .
  | Species        2: Confinement radius =              4.999999999999999 AA, multipole_radius_free =              5.048384829883283 AA.
  | Species        2: outer_partition_radius set to              5.048384829883283 AA .
  | The sparse table of interatomic distances needs        810.58 kbyte instead of      1404.49 kbyte of memory.
  | Net number of integration points:    31272
  | of which are non-zero points    :    26701
  | Numerical average free-atom electrostatic potential    :    -22.93814985 eV
  Renormalizing the initial density to the exact electron count on the 3D integration grid.
  | Initial density: Formal number of electrons (from input files) :     172.0000000000
  | Integrated number of electrons on 3D grid     :     171.9975217303
  | Charge integration error                      :      -0.0024782697
  | Normalization factor for density and gradient :       1.0000144088
  Renormalizing the free-atom superposition density to the exact electron count on the 3D integration grid.
  | Formal number of electrons (from input files) :     172.0000000000
  | Integrated number of electrons on 3D grid     :     171.9975217303
  | Charge integration error                      :      -0.0024782697
  | Normalization factor for density and gradient :       1.0000144088
  Obtaining max. number of non-zero basis functions in each batch (get_n_compute_maxes).
  | Maximal number of non-zero basis functions:      901 in task     0
  Allocating      338.037 MB for KS_eigenvector_complex
  Integrating Hamiltonian matrix: batch-based integration.
  Time summed over all CPUs for integration: real work        2.898 s, elapsed        2.898 s
  Integrating overlap matrix.
  Time summed over all CPUs for integration: real work        1.966 s, elapsed        1.966 s
  Decreasing sparse matrix size:
  | Tolerance:  0.1000E-12
  Hamiltonian matrix
  | Array has   235883 nonzero elements out of   283751 elements
  | Sparsity factor is 0.169
  Overlap matrix
  | Array has   217155 nonzero elements out of   283751 elements
  | Sparsity factor is 0.235
  New size of hamiltonian matrix:      236530

  Updating Kohn-Sham eigenvalues and eigenvectors using ELSI and the (modified) LAPACK eigensolver.
  Singularity check in k-point 1, task 0 (analysis for other k-points/tasks may follow below):
  Overlap matrix is not singular
  | Lowest and highest eigenvalues :  0.1399E-02,  0.7729E+01
  Finished singularity check of overlap matrix
  | Time :     0.002 s
  Starting LAPACK eigensolver
  Finished Cholesky decomposition
  | Time :     0.001 s
  Finished transformation to standard eigenproblem
  | Time :     0.001 s
  Finished solving standard eigenproblem
  | Time :     0.003 s
  Finished back-transformation of eigenvectors
  | Time :     0.001 s

  Obtaining occupation numbers and electronic chemical potential using ELSI.
  | Note that, for insulating systems, the printed 'chemical potential' value is not uniquely defined.
  | It can be anywhere in the energy gap, as long as it correctly separates occupied and unoccupied states.
  | In systems with a gap, the physically relevant chemical potential is the VBM or HOMO.

  | Chemical potential (Fermi level):    -3.95844394 eV
  Writing Kohn-Sham eigenvalues.
  K-point:       1 at    0.000000    0.000000    0.000000 (in units of recip. lattice)

  State    Occupation    Eigenvalue [Ha]    Eigenvalue [eV]
      1       2.00000       -3153.084090       -85799.78355
      2       2.00000       -3153.084090       -85799.78355
      3       2.00000        -515.587349       -14029.84561
      4       2.00000        -515.587349       -14029.84560
      5       2.00000        -445.953600       -12135.01488
      6       2.00000        -445.953600       -12135.01488
      7       2.00000        -445.953596       -12135.01477
      8       2.00000        -445.953596       -12135.01477
      9       2.00000        -445.953589       -12135.01459
     10       2.00000        -445.953589       -12135.01458
     11       2.00000        -119.501709        -3251.80694
     12       2.00000        -119.501709        -3251.80694
     13       2.00000         -99.656712        -2711.79711
     14       2.00000         -99.656712        -2711.79711
     15       2.00000         -99.656678        -2711.79618
     16       2.00000         -99.656678        -2711.79618
     17       2.00000         -99.656624        -2711.79471
     18       2.00000         -99.656624        -2711.79470
     19       2.00000         -78.244962        -2129.15375
     20       2.00000         -78.244962        -2129.15375
     21       2.00000         -78.244961        -2129.15371
     22       2.00000         -78.244961        -2129.15371
     23       2.00000         -78.244928        -2129.15281
     24       2.00000         -78.244928        -2129.15281
     25       2.00000         -78.244908        -2129.15227
     26       2.00000         -78.244908        -2129.15227
     27       2.00000         -78.244902        -2129.15211
     28       2.00000         -78.244902        -2129.15211
     29       2.00000         -25.570608         -695.81165
     30       2.00000         -25.570608         -695.81165
     31       2.00000         -19.106197         -519.90609
     32       2.00000         -19.106197         -519.90608
     33       2.00000         -19.105998         -519.90066
     34       2.00000         -19.105998         -519.90066
     35       2.00000         -19.105676         -519.89189
     36       2.00000         -19.105676         -519.89189
     37       2.00000         -18.972962         -516.28057
     38       2.00000         -18.972962         -516.28057
     39       2.00000         -11.278142         -306.89385
     40       2.00000         -11.278142         -306.89385
     41       2.00000         -11.278098         -306.89265
     42       2.00000         -11.278098         -306.89265
     43       2.00000         -11.277815         -306.88495
     44       2.00000         -11.277815         -306.88495
     45       2.00000         -11.277658         -306.88069
     46       2.00000         -11.277658         -306.88069
     47       2.00000         -11.277633         -306.88002
     48       2.00000         -11.277633         -306.88002
     49       2.00000          -3.741621         -101.81467
     50       2.00000          -3.741574         -101.81341
     51       2.00000          -2.583694          -70.30589
     52       2.00000          -2.583692          -70.30583
     53       2.00000          -2.583647          -70.30461
     54       2.00000          -2.583647          -70.30461
     55       2.00000          -2.583248          -70.29375
     56       2.00000          -2.583243          -70.29363
     57       2.00000          -2.583224          -70.29311
     58       2.00000          -2.583224          -70.29311
     59       2.00000          -2.583122          -70.29033
     60       2.00000          -2.583122          -70.29033
     61       2.00000          -2.582901          -70.28431
     62       2.00000          -2.582901          -70.28430
     63       2.00000          -2.582885          -70.28387
     64       2.00000          -2.582885          -70.28387
     65       2.00000          -2.064688          -56.18302
     66       2.00000          -2.064343          -56.17363
     67       2.00000          -2.064343          -56.17363
     68       2.00000          -2.062686          -56.12854
     69       2.00000          -2.057868          -55.99743
     70       2.00000          -2.057868          -55.99743
     71       2.00000          -1.007685          -27.42050
     72       2.00000          -0.963405          -26.21559
     73       2.00000          -0.564651          -15.36493
     74       2.00000          -0.482583          -13.13174
     75       2.00000          -0.482582          -13.13173
     76       2.00000          -0.415209          -11.29842
     77       2.00000          -0.415209          -11.29841
     78       2.00000          -0.392945          -10.69258
     79       2.00000          -0.346124           -9.41852
     80       2.00000          -0.308170           -8.38574
     81       2.00000          -0.272537           -7.41610
     82       2.00000          -0.213834           -5.81872
     83       2.00000          -0.211028           -5.74236
     84       2.00000          -0.211027           -5.74235
     85       2.00000          -0.200410           -5.45343
     86       2.00000          -0.196028           -5.33419
     87       0.00000          -0.135958           -3.69962
     88       0.00000          -0.091276           -2.48374
     89       0.00000          -0.091276           -2.48374
     90       0.00000          -0.017974           -0.48911
     91       0.00000           0.062044            1.68829
     92       0.00000           0.340756            9.27246
     93       0.00000           0.340762            9.27260
     94       0.00000           0.347898            9.46678
     95       0.00000           0.358772            9.76270
     96       0.00000           0.358776            9.76280
     97       0.00000           0.369521           10.05518
     98       0.00000           0.521834           14.19982
     99       0.00000           0.573085           15.59444
    100       0.00000           0.631344           17.17974
    101       0.00000           0.711252           19.35415
    102       0.00000           0.775893           21.11313
    103       0.00000           0.780834           21.24758
    104       0.00000           0.780839           21.24772
    105       0.00000           0.799728           21.76172
    106       0.00000           0.808615           22.00353
    107       0.00000           0.820362           22.32317
    108       0.00000           0.820364           22.32324
    109       0.00000           0.954244           25.96630
    110       0.00000           0.954247           25.96637
    111       0.00000           0.994303           27.05635
    112       0.00000           1.029834           28.02320
    113       0.00000           1.088820           29.62830
    114       0.00000           1.088826           29.62847
    115       0.00000           1.099072           29.90726

  What follows are estimated values for band gap, HOMO, LUMO, etc.
  | They are estimated on a discrete k-point grid and not necessarily exact.
  | For converged numbers, create a DOS and/or band structure plot on a denser k-grid.

  Highest occupied state (VBM) at     -3.96936458 eV (relative to internal zero)
  | Occupation number:      1.87751154
  | K-point:    1043 at    0.500000    0.428571    0.000000 (in units of recip. lattice)

  Lowest unoccupied state (CBM) at    -3.95735058 eV (relative to internal zero)
  | Occupation number:      0.87711804
  | K-point:    1061 at    0.500000    0.500000    0.928571 (in units of recip. lattice)

  ESTIMATED overall HOMO-LUMO gap:      0.01201400 eV between HOMO at k-point 1043 and LUMO at k-point 1061
  | This appears to be an indirect band gap.
  | Smallest direct gap :      0.05500225 eV for k_point 1043 at    0.500000    0.428571    0.000000 (in units of recip. lattice)
  However, this system has fractional occupation numbers. Since we use a finite k-point grid,
  this material is metallic within the approximate finite broadening function (occupation_type)
  applied to determine the occupation numbers.
  Calculating total energy contributions from superposition of free atom densities.

  Total energy components:
  | Sum of eigenvalues            :      -24023.19863487 Ha     -653704.49497330 eV
  | XC energy correction          :        -736.30581433 Ha      -20035.90062321 eV
  | XC potential correction       :         962.73960748 Ha       26197.47763239 eV
  | Free-atom electrostatic energy:      -14447.43976256 Ha     -393134.83841964 eV
  | Hartree energy correction     :           0.00000000 Ha           0.00000000 eV
  | Entropy correction            :          -0.00000032 Ha          -0.00000881 eV
  | ---------------------------
  | Total energy                  :      -38244.20460428 Ha    -1040677.75638376 eV
  | Total energy, T -> 0          :      -38244.20460460 Ha    -1040677.75639257 eV  <-- do not rely on this value for anything but (periodic) metals
  | Electronic free energy        :      -38244.20460493 Ha    -1040677.75640139 eV

  Derived energy quantities:
  | Kinetic energy                :       42753.36493858 Ha     1163378.25201258 eV
  | Electrostatic energy          :      -80261.26372854 Ha    -2184020.10777313 eV
  | Energy correction for multipole
  | error in Hartree potential    :           0.00000000 Ha           0.00000000 eV
  | Sum of eigenvalues per atom                           :     -163426.12374332 eV
  | Total energy (T->0) per atom                          :     -260169.43909814 eV  <-- do not rely on this value for anything but (periodic) metals
  | Electronic free energy per atom                       :     -260169.43910035 eV
  Initialize hartree_potential_storage
  Max. number of atoms included in rho_multipole:            4

  End scf initialization - timings             :  max(cpu_time)    wall_clock(cpu1)
  | Time for scf. initialization                :       17.741 s          17.743 s
  | Boundary condition initialization           :        0.103 s           0.103 s
  | Integration                                 :        4.869 s           4.869 s
  | Solution of K.-S. eqns.                     :       11.008 s          11.009 s
  | Grid partitioning                           :        0.187 s           0.187 s
  | Preloading free-atom quantities on grid     :        1.511 s           1.512 s
  | Free-atom superposition energy              :        0.157 s           0.157 s
  | Total energy evaluation                     :        0.004 s           0.003 s

  Partial memory accounting:
  | Current value for overall tracked memory usage:
  |   Minimum:      342.550 MB (on task 0)
  |   Maximum:      342.550 MB (on task 0)
  |   Average:      342.550 MB
  | Peak value for overall tracked memory usage:
  |   Minimum:      350.984 MB (on task 0 after allocating wave)
  |   Maximum:      350.984 MB (on task 0 after allocating wave)
  |   Average:      350.984 MB
  | Largest tracked array allocation so far:
  |   Minimum:      338.037 MB (KS_eigenvector_complex on task 0)
  |   Maximum:      338.037 MB (KS_eigenvector_complex on task 0)
  |   Average:      338.037 MB
  Note:  These values currently only include a subset of arrays which are explicitly tracked.
  The "true" memory usage will be greater.
------------------------------------------------------------
  Evaluating new KS density using the density matrix
  Evaluating density matrix
  Time summed over all CPUs for getting density from density matrix: real work        5.543 s, elapsed        5.543 s
  Integration grid: deviation in total charge (<rho> - N_e) =   2.772538E-10

  Time for density update prior                :  max(cpu_time)    wall_clock(cpu1)
  | self-consistency iterative process          :        6.615 s           6.615 s

------------------------------------------------------------
          Begin self-consistency iteration #    1

  Date     :  20241129, Time     :  041814.576
------------------------------------------------------------
  Pulay mixing of updated and previous charge densities.
  Renormalizing the density to the exact electron count on the 3D integration grid.
  | Formal number of electrons (from input files) :     172.0000000000
  | Integrated number of electrons on 3D grid     :     172.0000793678
  | Charge integration error                      :       0.0000793678
  | Normalization factor for density and gradient :       0.9999995386

  Evaluating partitioned Hartree potential by multipole expansion.
  | Original multipole sum: apparent total charge =   0.146261E-12
  | Sum of charges compensated after spline to logarithmic grids =   0.129149E-06
  | Analytical far-field extrapolation by fixed multipoles:
  | Hartree multipole sum: apparent total charge =   0.146197E-12
  Summing up the Hartree potential.
  Time summed over all CPUs for potential: real work        1.274 s, elapsed        1.274 s
  | RMS charge density error from multipole expansion :   0.100785E-02
  | Average real-space part of the electrostatic potential :     -0.01025072 eV

  Integrating Hamiltonian matrix: batch-based integration.
  Time summed over all CPUs for integration: real work        2.874 s, elapsed        2.874 s

  Updating Kohn-Sham eigenvalues and eigenvectors using ELSI and the (modified) LAPACK eigensolver.
  Starting LAPACK eigensolver
  Finished Cholesky decomposition
  | Time :     0.001 s
  Finished transformation to standard eigenproblem
  | Time :     0.001 s
  Finished solving standard eigenproblem
  | Time :     0.003 s
  Finished back-transformation of eigenvectors
  | Time :     0.000 s

  Obtaining occupation numbers and electronic chemical potential using ELSI.
  | Note that, for insulating systems, the printed 'chemical potential' value is not uniquely defined.
  | It can be anywhere in the energy gap, as long as it correctly separates occupied and unoccupied states.
  | In systems with a gap, the physically relevant chemical potential is the VBM or HOMO.

  | Chemical potential (Fermi level):    -4.04952791 eV
  Writing Kohn-Sham eigenvalues.
  K-point:       1 at    0.000000    0.000000    0.000000 (in units of recip. lattice)

  State    Occupation    Eigenvalue [Ha]    Eigenvalue [eV]
      1       2.00000       -3153.097346       -85800.14425
      2       2.00000       -3153.097346       -85800.14425
      3       2.00000        -515.600305       -14030.19816
      4       2.00000        -515.600305       -14030.19816
      5       2.00000        -445.966667       -12135.37044
      6       2.00000        -445.966667       -12135.37044
      7       2.00000        -445.966650       -12135.36999
      8       2.00000        -445.966650       -12135.36999
      9       2.00000        -445.966500       -12135.36591
     10       2.00000        -445.966500       -12135.36591
     11       2.00000        -119.513598        -3252.13046
     12       2.00000        -119.513598        -3252.13046
     13       2.00000         -99.668681        -2712.12281
     14       2.00000         -99.668681        -2712.12281
     15       2.00000         -99.668642        -2712.12174
     16       2.00000         -99.668642        -2712.12174
     17       2.00000         -99.668340        -2712.11352
     18       2.00000         -99.668340        -2712.11352
     19       2.00000         -78.257181        -2129.48623
     20       2.00000         -78.257181        -2129.48623
     21       2.00000         -78.257045        -2129.48254
     22       2.00000         -78.257045        -2129.48254
     23       2.00000         -78.256893        -2129.47842
     24       2.00000         -78.256893        -2129.47842
     25       2.00000         -78.256873        -2129.47786
     26       2.00000         -78.256873        -2129.47786
     27       2.00000         -78.256857        -2129.47741
     28       2.00000         -78.256857        -2129.47741
     29       2.00000         -25.581139         -696.09820
     30       2.00000         -25.581139         -696.09820
     31       2.00000         -19.116916         -520.19775
     32       2.00000         -19.116916         -520.19775
     33       2.00000         -19.116640         -520.19025
     34       2.00000         -19.116640         -520.19025
     35       2.00000         -19.115546         -520.16049
     36       2.00000         -19.115546         -520.16049
     37       2.00000         -18.955011         -515.79210
     38       2.00000         -18.955011         -515.79210
     39       2.00000         -11.289144         -307.19323
     40       2.00000         -11.289144         -307.19323
     41       2.00000         -11.288596         -307.17832
     42       2.00000         -11.288596         -307.17832
     43       2.00000         -11.287873         -307.15866
     44       2.00000         -11.287873         -307.15866
     45       2.00000         -11.287661         -307.15290
     46       2.00000         -11.287661         -307.15290
     47       2.00000         -11.287611         -307.15153
     48       2.00000         -11.287611         -307.15153
     49       2.00000          -3.749749         -102.03587
     50       2.00000          -3.749704         -102.03463
     51       2.00000          -2.594417          -70.59767
     52       2.00000          -2.594415          -70.59761
     53       2.00000          -2.594345          -70.59573
     54       2.00000          -2.594345          -70.59573
     55       2.00000          -2.593430          -70.57083
     56       2.00000          -2.593426          -70.57071
     57       2.00000          -2.593071          -70.56106
     58       2.00000          -2.593071          -70.56106
     59       2.00000          -2.592907          -70.55660
     60       2.00000          -2.592907          -70.55660
     61       2.00000          -2.592590          -70.54797
     62       2.00000          -2.592590          -70.54796
     63       2.00000          -2.592564          -70.54726
     64       2.00000          -2.592564          -70.54726
     65       2.00000          -2.072584          -56.39788
     66       2.00000          -2.072584          -56.39788
     67       2.00000          -2.072497          -56.39550
     68       2.00000          -2.070535          -56.34212
     69       2.00000          -2.063577          -56.15280
     70       2.00000          -2.063577          -56.15279
     71       2.00000          -1.001431          -27.25032
     72       2.00000          -0.956351          -26.02363
     73       2.00000          -0.561866          -15.28914
     74       2.00000          -0.479068          -13.03609
     75       2.00000          -0.479067          -13.03608
     76       2.00000          -0.408361          -11.11207
     77       2.00000          -0.408361          -11.11206
     78       2.00000          -0.385913          -10.50124
     79       2.00000          -0.347615           -9.45909
     80       2.00000          -0.310546           -8.45039
     81       2.00000          -0.276959           -7.53643
     82       2.00000          -0.218331           -5.94108
     83       2.00000          -0.215454           -5.86280
     84       2.00000          -0.215453           -5.86279
     85       2.00000          -0.205103           -5.58115
     86       2.00000          -0.199908           -5.43978
     87       0.00000          -0.137142           -3.73183
     88       0.00000          -0.092632           -2.52064
     89       0.00000          -0.092632           -2.52064
     90       0.00000          -0.017406           -0.47365
     91       0.00000           0.063627            1.73137
     92       0.00000           0.341511            9.29299
     93       0.00000           0.341517            9.29316
     94       0.00000           0.346448            9.42732
     95       0.00000           0.357684            9.73307
     96       0.00000           0.357688            9.73318
     97       0.00000           0.368559           10.02899
     98       0.00000           0.519589           14.13874
     99       0.00000           0.573233           15.59847
    100       0.00000           0.629995           17.14304
    101       0.00000           0.710984           19.34686
    102       0.00000           0.775031           21.08966
    103       0.00000           0.780862           21.24834
    104       0.00000           0.780868           21.24849
    105       0.00000           0.798685           21.73331
    106       0.00000           0.808084           21.98910
    107       0.00000           0.818678           22.27737
    108       0.00000           0.818681           22.27743
    109       0.00000           0.953197           25.93781
    110       0.00000           0.953200           25.93789
    111       0.00000           0.993325           27.02975
    112       0.00000           1.029666           28.01864
    113       0.00000           1.088887           29.63011
    114       0.00000           1.088893           29.63028
    115       0.00000           1.096970           29.85007

  What follows are estimated values for band gap, HOMO, LUMO, etc.
  | They are estimated on a discrete k-point grid and not necessarily exact.
  | For converged numbers, create a DOS and/or band structure plot on a denser k-grid.

  Highest occupied state (VBM) at     -4.05758463 eV (relative to internal zero)
  | Occupation number:      1.74546058
  | K-point:    1055 at    0.500000    0.500000    0.142857 (in units of recip. lattice)

  Lowest unoccupied state (CBM) at    -4.04920109 eV (relative to internal zero)
  | Occupation number:      0.96313513
  | K-point:     910 at    0.428571    0.500000    0.000000 (in units of recip. lattice)

  ESTIMATED overall HOMO-LUMO gap:      0.00838355 eV between HOMO at k-point 1055 and LUMO at k-point 910
  | This appears to be an indirect band gap.
  | Smallest direct gap :      0.03442698 eV for k_point 1054 at    0.500000    0.500000    0.000000 (in units of recip. lattice)
  However, this system has fractional occupation numbers. Since we use a finite k-point grid,
  this material is metallic within the approximate finite broadening function (occupation_type)
  applied to determine the occupation numbers.

  Total energy components:
  | Sum of eigenvalues            :      -24024.56639103 Ha     -653741.71351205 eV
  | XC energy correction          :        -736.29170265 Ha      -20035.51662497 eV
  | XC potential correction       :         962.72039060 Ha       26196.95471450 eV
  | Free-atom electrostatic energy:      -14447.43976256 Ha     -393134.83841964 eV
  | Hartree energy correction     :           1.39514833 Ha          37.96391761 eV
  | Entropy correction            :          -0.00000066 Ha          -0.00001792 eV
  | ---------------------------
  | Total energy                  :      -38244.18231731 Ha    -1040677.14992455 eV
  | Total energy, T -> 0          :      -38244.18231797 Ha    -1040677.14994247 eV  <-- do not rely on this value for anything but (periodic) metals
  | Electronic free energy        :      -38244.18231863 Ha    -1040677.14996039 eV

  Derived energy quantities:
  | Kinetic energy                :       42752.97126185 Ha     1163367.53952355 eV
  | Electrostatic energy          :      -80260.86187651 Ha    -2184009.17282313 eV
  | Energy correction for multipole
  | error in Hartree potential    :           0.00026085 Ha           0.00709806 eV
  | Sum of eigenvalues per atom                           :     -163435.42837801 eV
  | Total energy (T->0) per atom                          :     -260169.28748562 eV  <-- do not rely on this value for anything but (periodic) metals
  | Electronic free energy per atom                       :     -260169.28749010 eV
  Evaluating new KS density using the density matrix
  Evaluating density matrix
  Time summed over all CPUs for getting density from density matrix: real work        5.540 s, elapsed        5.540 s
  Integration grid: deviation in total charge (<rho> - N_e) =   2.772538E-10

  Self-consistency convergence accuracy:
  | Change of charge density      :  0.5118E+00
  | Change of unmixed KS density  :  0.7332E+03
  | Change of sum of eigenvalues  : -0.3722E+02 eV
  | Change of total energy        :  0.6065E+00 eV


------------------------------------------------------------
  End self-consistency iteration #     1       :  max(cpu_time)    wall_clock(cpu1)
  | Time for this iteration                     :       20.024 s          20.025 s
  | Charge density update                       :        6.604 s           6.604 s
  | Density mixing & preconditioning            :        0.969 s           0.969 s
  | Hartree multipole update                    :        0.003 s           0.003 s
  | Hartree multipole summation                 :        1.286 s           1.286 s
  | Integration                                 :        2.875 s           2.875 s
  | Solution of K.-S. eqns.                     :        8.282 s           8.282 s
  | Total energy evaluation                     :        0.004 s           0.004 s

  Partial memory accounting:
  | Current value for overall tracked memory usage:
  |   Minimum:      342.550 MB (on task 0)
  |   Maximum:      342.550 MB (on task 0)
  |   Average:      342.550 MB
  | Peak value for overall tracked memory usage:
  |   Minimum:      351.383 MB (on task 0 after allocating gradient_basis_wave)
  |   Maximum:      351.383 MB (on task 0 after allocating gradient_basis_wave)
  |   Average:      351.383 MB
  | Largest tracked array allocation so far:
  |   Minimum:      338.037 MB (KS_eigenvector_complex on task 0)
  |   Maximum:      338.037 MB (KS_eigenvector_complex on task 0)
  |   Average:      338.037 MB
  Note:  These values currently only include a subset of arrays which are explicitly tracked.
  The "true" memory usage will be greater.
------------------------------------------------------------

------------------------------------------------------------
          Begin self-consistency iteration #    2

  Date     :  20241129, Time     :  041834.603
------------------------------------------------------------
  Pulay mixing of updated and previous charge densities.
  Renormalizing the density to the exact electron count on the 3D integration grid.
  | Formal number of electrons (from input files) :     172.0000000000
  | Integrated number of electrons on 3D grid     :     172.0003313636
  | Charge integration error                      :       0.0003313636
  | Normalization factor for density and gradient :       0.9999980735

  Evaluating partitioned Hartree potential by multipole expansion.
  | Original multipole sum: apparent total charge =  -0.454222E-12
  | Sum of charges compensated after spline to logarithmic grids =   0.173318E-05
  | Analytical far-field extrapolation by fixed multipoles:
  | Hartree multipole sum: apparent total charge =  -0.454763E-12
  Summing up the Hartree potential.
  Time summed over all CPUs for potential: real work        1.410 s, elapsed        1.410 s
  | RMS charge density error from multipole expansion :   0.885994E-02
  | Average real-space part of the electrostatic potential :     -0.08448352 eV

  Integrating Hamiltonian matrix: batch-based integration.
  Time summed over all CPUs for integration: real work        2.882 s, elapsed        2.882 s

  Updating Kohn-Sham eigenvalues and eigenvectors using ELSI and the (modified) LAPACK eigensolver.
  Starting LAPACK eigensolver
  Finished Cholesky decomposition
  | Time :     0.000 s
  Finished transformation to standard eigenproblem
  | Time :     0.001 s
  Finished solving standard eigenproblem
  | Time :     0.003 s
  Finished back-transformation of eigenvectors
  | Time :     0.000 s

  Obtaining occupation numbers and electronic chemical potential using ELSI.
  | Note that, for insulating systems, the printed 'chemical potential' value is not uniquely defined.
  | It can be anywhere in the energy gap, as long as it correctly separates occupied and unoccupied states.
  | In systems with a gap, the physically relevant chemical potential is the VBM or HOMO.

  | Chemical potential (Fermi level):    -4.77046959 eV
  What follows are estimated values for band gap, HOMO, LUMO, etc.
  | They are estimated on a discrete k-point grid and not necessarily exact.
  | For converged numbers, create a DOS and/or band structure plot on a denser k-grid.

  Highest occupied state (VBM) at     -4.77140818 eV (relative to internal zero)
  | Occupation number:      1.10559839
  | K-point:    1035 at    0.500000    0.357143    0.214286 (in units of recip. lattice)

  Lowest unoccupied state (CBM) at    -4.76925122 eV (relative to internal zero)
  | Occupation number:      0.86319853
  | K-point:    1109 at    0.571429    0.500000    0.642857 (in units of recip. lattice)

  ESTIMATED overall HOMO-LUMO gap:      0.00215696 eV between HOMO at k-point 1035 and LUMO at k-point 1109
  | This appears to be an indirect band gap.
  | Smallest direct gap :      0.16898732 eV for k_point 764 at    0.357143    0.500000    0.142857 (in units of recip. lattice)
  However, this system has fractional occupation numbers. Since we use a finite k-point grid,
  this material is metallic within the approximate finite broadening function (occupation_type)
  applied to determine the occupation numbers.

  Checking to see if s.c.f. parameters should be adjusted.
  Adjusted the Pulay mixing parameter (charge_mix_param) for an expected low-gap system. New value:   0.020000 .
  Adjusted the occupation broadening width for an expected low-gap system. New value:      0.05000000 eV.

  Total energy components:
  | Sum of eigenvalues            :      -24034.58920691 Ha     -654014.44820888 eV
  | XC energy correction          :        -736.19960336 Ha      -20033.01047579 eV
  | XC potential correction       :         962.59358787 Ha       26193.50423686 eV
  | Free-atom electrostatic energy:      -14447.43976256 Ha     -393134.83841964 eV
  | Hartree energy correction     :          11.52665963 Ha         313.65636708 eV
  | Entropy correction            :          -0.00002052 Ha          -0.00055829 eV
  | ---------------------------
  | Total energy                  :      -38244.10832534 Ha    -1040675.13650035 eV
  | Total energy, T -> 0          :      -38244.10834585 Ha    -1040675.13705864 eV  <-- do not rely on this value for anything but (periodic) metals
  | Electronic free energy        :      -38244.10836637 Ha    -1040675.13761693 eV

  Derived energy quantities:
  | Kinetic energy                :       42750.16186436 Ha     1163291.09192826 eV
  | Electrostatic energy          :      -80258.07058633 Ha    -2183933.21795283 eV
  | Energy correction for multipole
  | error in Hartree potential    :           0.00317911 Ha           0.08650799 eV
  | Sum of eigenvalues per atom                           :     -163503.61205222 eV
  | Total energy (T->0) per atom                          :     -260168.78426466 eV  <-- do not rely on this value for anything but (periodic) metals
  | Electronic free energy per atom                       :     -260168.78440423 eV
  Evaluating new KS density using the density matrix
  Evaluating density matrix
  Time summed over all CPUs for getting density from density matrix: real work        5.578 s, elapsed        5.578 s
  Integration grid: deviation in total charge (<rho> - N_e) =   2.766569E-10

  Self-consistency convergence accuracy:
  | Change of charge density      :  0.4591E+00
  | Change of unmixed KS density  :  0.3860E-01
  | Change of sum of eigenvalues  : -0.2727E+03 eV
  | Change of total energy        :  0.2013E+01 eV


------------------------------------------------------------
  End self-consistency iteration #     2       :  max(cpu_time)    wall_clock(cpu1)
  | Time for this iteration                     :       20.178 s          20.178 s
  | Charge density update                       :        6.641 s           6.641 s
  | Density mixing & preconditioning            :        0.930 s           0.930 s
  | Hartree multipole update                    :        0.003 s           0.003 s
  | Hartree multipole summation                 :        1.423 s           1.423 s
  | Integration                                 :        2.884 s           2.884 s
  | Solution of K.-S. eqns.                     :        8.292 s           8.292 s
  | Total energy evaluation                     :        0.004 s           0.004 s

  Partial memory accounting:
  | Current value for overall tracked memory usage:
  |   Minimum:      342.550 MB (on task 0)
  |   Maximum:      342.550 MB (on task 0)
  |   Average:      342.550 MB
  | Peak value for overall tracked memory usage:
  |   Minimum:      351.383 MB (on task 0 after allocating gradient_basis_wave)
  |   Maximum:      351.383 MB (on task 0 after allocating gradient_basis_wave)
  |   Average:      351.383 MB
  | Largest tracked array allocation so far:
  |   Minimum:      338.037 MB (KS_eigenvector_complex on task 0)
  |   Maximum:      338.037 MB (KS_eigenvector_complex on task 0)
  |   Average:      338.037 MB
  Note:  These values currently only include a subset of arrays which are explicitly tracked.
  The "true" memory usage will be greater.
------------------------------------------------------------

------------------------------------------------------------
          Begin self-consistency iteration #    3

  Date     :  20241129, Time     :  041854.782
------------------------------------------------------------
  Pulay mixing of updated and previous charge densities.
  Renormalizing the density to the exact electron count on the 3D integration grid.
  | Formal number of electrons (from input files) :     172.0000000000
  | Integrated number of electrons on 3D grid     :     171.9985991995
  | Charge integration error                      :      -0.0014008005
  | Normalization factor for density and gradient :       1.0000081443

  Evaluating partitioned Hartree potential by multipole expansion.
  | Original multipole sum: apparent total charge =   0.932119E-12
  | Sum of charges compensated after spline to logarithmic grids =   0.526089E-05
  | Analytical far-field extrapolation by fixed multipoles:
  | Hartree multipole sum: apparent total charge =   0.931922E-12
  Summing up the Hartree potential.
  Time summed over all CPUs for potential: real work        1.413 s, elapsed        1.413 s
  | RMS charge density error from multipole expansion :   0.952995E-02
  | Average real-space part of the electrostatic potential :     -0.06093658 eV

  Integrating Hamiltonian matrix: batch-based integration.
  Time summed over all CPUs for integration: real work        2.835 s, elapsed        2.835 s

  Updating Kohn-Sham eigenvalues and eigenvectors using ELSI and the (modified) LAPACK eigensolver.
  Starting LAPACK eigensolver
  Finished Cholesky decomposition
  | Time :     0.001 s
  Finished transformation to standard eigenproblem
  | Time :     0.001 s
  Finished solving standard eigenproblem
  | Time :     0.003 s
  Finished back-transformation of eigenvectors
  | Time :     0.000 s

  Obtaining occupation numbers and electronic chemical potential using ELSI.
  | Note that, for insulating systems, the printed 'chemical potential' value is not uniquely defined.
  | It can be anywhere in the energy gap, as long as it correctly separates occupied and unoccupied states.
  | In systems with a gap, the physically relevant chemical potential is the VBM or HOMO.

  | Chemical potential (Fermi level):    -4.58639942 eV
  What follows are estimated values for band gap, HOMO, LUMO, etc.
  | They are estimated on a discrete k-point grid and not necessarily exact.
  | For converged numbers, create a DOS and/or band structure plot on a denser k-grid.

  Highest occupied state (VBM) at     -4.58724496 eV (relative to internal zero)
  | Occupation number:      1.01908002
  | K-point:    1024 at    0.500000    0.285714    0.142857 (in units of recip. lattice)

  Lowest unoccupied state (CBM) at    -4.58565232 eV (relative to internal zero)
  | Occupation number:      0.98314107
  | K-point:     766 at    0.357143    0.500000    0.285714 (in units of recip. lattice)

  ESTIMATED overall HOMO-LUMO gap:      0.00159264 eV between HOMO at k-point 1024 and LUMO at k-point 766
  | This appears to be an indirect band gap.
  | Smallest direct gap :      0.18038585 eV for k_point 1104 at    0.571429    0.428571    0.214286 (in units of recip. lattice)
  However, this system has fractional occupation numbers. Since we use a finite k-point grid,
  this material is metallic within the approximate finite broadening function (occupation_type)
  applied to determine the occupation numbers.

  Total energy components:
[...]
     42       2.00000         -11.347113         -308.77065
     43       2.00000         -11.342379         -308.64184
     44       2.00000         -11.342379         -308.64183
     45       2.00000         -11.342323         -308.64031
     46       2.00000         -11.342323         -308.64031
     47       2.00000         -11.341889         -308.62850
     48       2.00000         -11.341889         -308.62850
     49       2.00000          -3.803732         -103.50481
     50       2.00000          -3.803690         -103.50366
     51       2.00000          -2.658910          -72.35261
     52       2.00000          -2.658908          -72.35256
     53       2.00000          -2.658710          -72.34717
     54       2.00000          -2.658710          -72.34717
     55       2.00000          -2.652162          -72.16901
     56       2.00000          -2.652158          -72.16890
     57       2.00000          -2.646802          -72.02315
     58       2.00000          -2.646802          -72.02315
     59       2.00000          -2.646690          -72.02009
     60       2.00000          -2.646689          -72.02009
     61       2.00000          -2.645820          -71.99643
     62       2.00000          -2.645820          -71.99642
     63       2.00000          -2.645814          -71.99627
     64       2.00000          -2.645814          -71.99625
     65       2.00000          -2.132535          -58.02923
     66       2.00000          -2.132535          -58.02923
     67       2.00000          -2.128831          -57.92844
     68       2.00000          -2.127145          -57.88256
     69       2.00000          -2.095208          -57.01351
     70       2.00000          -2.095208          -57.01350
     71       2.00000          -0.961693          -26.16898
     72       2.00000          -0.910661          -24.78035
     73       2.00000          -0.549134          -14.94270
     74       2.00000          -0.464842          -12.64898
     75       2.00000          -0.464841          -12.64897
     76       2.00000          -0.365469           -9.94492
     77       2.00000          -0.365468           -9.94490
     78       2.00000          -0.357781           -9.73571
     79       2.00000          -0.342775           -9.32739
     80       2.00000          -0.324288           -8.82432
     81       2.00000          -0.308142           -8.38496
     82       2.00000          -0.248416           -6.75974
     83       2.00000          -0.245448           -6.67898
     84       2.00000          -0.245448           -6.67897
     85       2.00000          -0.236416           -6.43321
     86       2.00000          -0.228631           -6.22137
     87       0.00000          -0.142971           -3.89044
     88       0.00000          -0.101143           -2.75224
     89       0.00000          -0.101143           -2.75224
     90       0.00000          -0.010295           -0.28014
     91       0.00000           0.074609            2.03021
     92       0.00000           0.341091            9.28155
     93       0.00000           0.347114            9.44544
     94       0.00000           0.347116            9.44551
     95       0.00000           0.352141            9.58226
     96       0.00000           0.352145            9.58236
     97       0.00000           0.361415            9.83460
     98       0.00000           0.506517           13.78302
     99       0.00000           0.576508           15.68759
    100       0.00000           0.625542           17.02187
    101       0.00000           0.708872           19.28938
    102       0.00000           0.771817           21.00221
    103       0.00000           0.783198           21.31189
    104       0.00000           0.783203           21.31204
    105       0.00000           0.794761           21.62655
    106       0.00000           0.804731           21.89785
    107       0.00000           0.807582           21.97543
    108       0.00000           0.807585           21.97550
    109       0.00000           0.944379           25.69787
    110       0.00000           0.944382           25.69795
    111       0.00000           0.988063           26.88656
    112       0.00000           1.024236           27.87088
    113       0.00000           1.082287           29.45053
    114       0.00000           1.088775           29.62708
    115       0.00000           1.088781           29.62724

  What follows are estimated values for band gap, HOMO, LUMO, etc.
  | They are estimated on a discrete k-point grid and not necessarily exact.
  | For converged numbers, create a DOS and/or band structure plot on a denser k-grid.

  Highest occupied state (VBM) at     -4.70952831 eV (relative to internal zero)
  | Occupation number:      1.07667799
  | K-point:     878 at    0.428571    0.285714    0.000000 (in units of recip. lattice)

  Lowest unoccupied state (CBM) at    -4.70158055 eV (relative to internal zero)
  | Occupation number:      0.89771636
  | K-point:     618 at    0.285714    0.500000    0.214286 (in units of recip. lattice)

  ESTIMATED overall HOMO-LUMO gap:      0.00794776 eV between HOMO at k-point 878 and LUMO at k-point 618
  | This appears to be an indirect band gap.
  | Smallest direct gap :      0.11627346 eV for k_point 1208 at    0.714286    0.500000    0.928571 (in units of recip. lattice)
  However, this system has fractional occupation numbers. Since we use a finite k-point grid,
  this material is metallic within the approximate finite broadening function (occupation_type)
  applied to determine the occupation numbers.

  | Chemical Potential                          :    -4.70612536 eV
  | Note that, for insulating systems, the printed 'chemical potential' value is not uniquely defined.
  | It can be anywhere in the energy gap, as long as it correctly separates occupied and unoccupied states.
  | In systems with a gap, the physically relevant chemical potential is the VBM or HOMO.

  Self-consistency cycle converged.


------------------------------------------------------------
  End self-consistency iteration #    25       :  max(cpu_time)    wall_clock(cpu1)
  | Time for this iteration                     :       13.556 s          13.556 s
  | Charge density update                       :        0.000 s           0.000 s
  | Density mixing                              :        1.035 s           1.035 s
  | Hartree multipole update                    :        0.003 s           0.003 s
  | Hartree multipole summation                 :        1.433 s           1.433 s
  | Integration                                 :        2.870 s           2.869 s
  | Solution of K.-S. eqns.                     :        8.210 s           8.210 s
  | Total energy evaluation                     :        0.004 s           0.003 s

  Partial memory accounting:
  | Current value for overall tracked memory usage:
  |   Minimum:      342.550 MB (on task 0)
  |   Maximum:      342.550 MB (on task 0)
  |   Average:      342.550 MB
  | Peak value for overall tracked memory usage:
  |   Minimum:      351.384 MB (on task 0 after allocating gradient_basis_wave)
  |   Maximum:      351.384 MB (on task 0 after allocating gradient_basis_wave)
  |   Average:      351.384 MB
  | Largest tracked array allocation so far:
  |   Minimum:      338.037 MB (KS_eigenvector_complex on task 0)
  |   Maximum:      338.037 MB (KS_eigenvector_complex on task 0)
  |   Average:      338.037 MB
  Note:  These values currently only include a subset of arrays which are explicitly tracked.
  The "true" memory usage will be greater.
------------------------------------------------------------

  Energy and forces in a compact form:
  | Total energy uncorrected      :         -0.104067505855944E+07 eV
  | Total energy corrected        :         -0.104067505947400E+07 eV  <-- do not rely on this value for anything but (periodic) metals
  | Electronic free energy        :         -0.104067506038857E+07 eV

  Calculating total density of states ...
  | Chemical potential is  -4.706125 eV.
  | writing DOS (shifted by electron chemical potential) to file KS_DOS_total_tetrahedron.dat
  | writing DOS (raw data) to file KS_DOS_total_raw_tetrahedron.dat
  | Note that, for insulating systems, the printed 'chemical potential' value is not uniquely defined.
  | It can be anywhere in the energy gap, as long as it correctly separates occupied and unoccupied states.
  | In systems with a gap, the physically relevant chemical potential is the VBM or HOMO.
  ------------------------------------ 
  Start decomposition of the XC Energy 
  ------------------------------------ 
  X and C from original XC functional choice 
  Hartree-Fock Energy :          0.000000000 Ha              0.000000000 eV
  X Energy            :       -726.108249025 Ha         -19758.410752846 eV
  C Energy            :        -10.146499042 Ha           -276.100286759 eV
  XC Energy w/o HF    :       -736.254748067 Ha         -20034.511039604 eV
  Total XC Energy     :       -736.254748067 Ha         -20034.511039604 eV
  ------------------------------------ 
  LDA X and C from self-consistent density 
  X Energy LDA        :       -696.202696630 Ha         -18944.639267940 eV
  C Energy LDA        :        -17.442884291 Ha           -474.645031221 eV
  ------------------------------------ 
  End decomposition of the XC Energy 
  ------------------------------------ 

------------------------------------------------------------

  -------------------------------------------------------------------
  Writing the requested band structure output (LAPACK version):
  -------------------------------------------------------------------

  Integrating Hamiltonian matrix: batch-based integration.
  Time summed over all CPUs for integration: real work        2.930 s, elapsed        2.930 s

  Treating all   31 k-points in band plot segment #   1:

  Overlap matrix is not singular
  | Lowest and highest eigenvalues :  0.1399E-02,  0.7729E+01
  Finished singularity check of overlap matrix
  | Time :     0.003 s
  Starting LAPACK eigensolver
  Finished Cholesky decomposition
  | Time :     0.000 s
  Finished transformation to standard eigenproblem
  | Time :     0.001 s
  Finished solving standard eigenproblem
  | Time :     0.003 s
  Finished back-transformation of eigenvectors
  | Time :     0.000 s
  "Band gap" along reciprocal space direction number:    1
  | Lowest unoccupied state:      -3.89044297 eV
  | Highest occupied state :      -4.88333027 eV
  | Energy difference      :       0.99288730 eV


  Treating all   31 k-points in band plot segment #   2:

  "Band gap" along reciprocal space direction number:    2
  | Lowest unoccupied state:      -4.69827902 eV
  | Highest occupied state :      -4.72103221 eV
  | Energy difference      :       0.02275320 eV


  Treating all   31 k-points in band plot segment #   3:

  "Band gap" along reciprocal space direction number:    3
  | Lowest unoccupied state:      -4.68154344 eV
  | Highest occupied state :      -4.76857393 eV
  | Energy difference      :       0.08703049 eV


  Treating all   31 k-points in band plot segment #   4:

  "Band gap" along reciprocal space direction number:    4
  | Lowest unoccupied state:      -3.89044297 eV
  | Highest occupied state :      -5.82899900 eV
  | Energy difference      :       1.93855603 eV


  Treating all   31 k-points in band plot segment #   5:

  "Band gap" along reciprocal space direction number:    5
  | Lowest unoccupied state:      -4.68393681 eV
  | Highest occupied state :      -4.72881333 eV
  | Energy difference      :       0.04487652 eV


  Treating all   31 k-points in band plot segment #   6:

  "Band gap" along reciprocal space direction number:    6
  | Lowest unoccupied state:      -4.70281868 eV
  | Highest occupied state :      -4.71523348 eV
  | Energy difference      :       0.01241481 eV


  Treating all   31 k-points in band plot segment #   7:

  "Band gap" along reciprocal space direction number:    7
  | Lowest unoccupied state:      -4.68206112 eV
  | Highest occupied state :      -4.72612995 eV
  | Energy difference      :       0.04406883 eV


  Treating all   31 k-points in band plot segment #   8:

  "Band gap" along reciprocal space direction number:    8
  | Lowest unoccupied state:      -4.68206114 eV
  | Highest occupied state :      -4.72612993 eV
  | Energy difference      :       0.04406879 eV


  Treating all   31 k-points in band plot segment #   9:

  "Band gap" along reciprocal space direction number:    9
  | Lowest unoccupied state:      -4.67742370 eV
  | Highest occupied state :      -4.72395017 eV
  | Energy difference      :       0.04652647 eV

  "Band gap" of total set of bands:
  | Lowest unoccupied state:      -4.70281868 eV
  | Highest occupied state :      -4.71523348 eV
  | Energy difference      :       0.01241481 eV



  Band Structure                                          :  max(cpu_time) wall_clock(cpu1)
  | Total Time                                            :          5.151            5.189
------------------------------------------------------------

------------------------------------------------------------------------------
  Final output of selected total energy values:

  The following output summarizes some interesting total energy values
  at the end of a run (AFTER all relaxation, molecular dynamics, etc.).

  | Total energy of the DFT / Hartree-Fock s.c.f. calculation      :       -1040675.058559439 eV
  | Final zero-broadening corrected energy (caution - metals only) :       -1040675.059474003 eV
  | For reference only, the value of 1 Hartree used in FHI-aims is :             27.211384500 eV
  | For reference only, the overall average (free atom contribution
  | + realspace contribution) of the electrostatic potential after
  | s.c.f. convergence is                                          :            -22.970765485 eV

  Before relying on these values, please be sure to understand exactly which
  total energy value is referred to by a given number. Different objects may
  all carry the same name 'total energy'. Definitions:

  Total energy of the DFT / Hartree-Fock s.c.f. calculation:
  | Note that this energy does not include ANY quantities calculated after the
  | s.c.f. cycle, in particular not ANY RPA, MP2, etc. many-body perturbation terms.

  Final zero-broadening corrected energy:
  | For metallic systems only, a broadening of the occupation numbers at the Fermi
  | level can be extrapolated back to zero broadening by an electron-gas inspired
  | formula. For all systems that are not real metals, this value can be
  | meaningless and should be avoided.

------------------------------------------------------------------------------
  Methods described in the following list of references were used in this FHI-aims run.
  If you publish the results, please make sure to cite these reference if they apply.
  FHI-aims is an academic code, and for our developers (often, Ph.D. students
  and postdocs), scientific credit in the community is essential.
  Thank you for helping us!

  For any use of FHI-aims, please cite:

    Volker Blum, Ralf Gehrke, Felix Hanke, Paula Havu, Ville Havu,
    Xinguo Ren, Karsten Reuter, and Matthias Scheffler
    'Ab initio molecular simulations with numeric atom-centered orbitals'
    Computer Physics Communications 180, 2175-2196 (2009)
    http://doi.org/10.1016/j.cpc.2009.06.022


  The provided symmetry information was generated with SPGlib:

    Atsushi Togo, Yusuke Seto, Dimitar Pashov
    SPGlib 1.7.3 obtained from http://spglib.sourceforge.net
    Copyright (C) 2008 Atsushi Togo


  The ELSI infrastructure was used in your run to solve the Kohn-Sham electronic structure.
  Please check out http://elsi-interchange.org to learn more.
  If scalability is important for your project, please acknowledge ELSI by citing:

    V. W-z. Yu, F. Corsetti, A. Garcia, W. P. Huhn, M. Jacquelin, W. Jia,
    B. Lange, L. Lin, J. Lu, W. Mi, A. Seifitokaldani, A. Vazquez-Mayagoitia,
    C. Yang, H. Yang, and V. Blum
    'ELSI: A unified software interface for Kohn-Sham electronic structure solvers'
    Computer Physics Communications 222, 267-285 (2018).
    http://doi.org/10.1016/j.cpc.2017.09.007


  For the real-space grid partitioning and parallelization used in this calculation, please cite:

    Ville Havu, Volker Blum, Paula Havu, and Matthias Scheffler,
    'Efficient O(N) integration for all-electron electronic structure calculation'
    'using numerically tabulated basis functions'
    Journal of Computational Physics 228, 8367-8379 (2009).
    http://doi.org/10.1016/j.jcp.2009.08.008

  Of course, there are many other important community references, e.g., those cited in the
  above references. Our list is limited to references that describe implementations in the
  FHI-aims code. The reason is purely practical (length of this list) - please credit others as well.

 * A warning was issued further up regarding the accuracy of onsite integrals.
   An integral with a negative eigenvalue was among the flagged integrals.
   In most standard situations, this warning is probably harmless.
   If needed, this can be verified by adjusting the radial_multiplier flag.

------------------------------------------------------------
          Leaving FHI-aims.
          Date     :  20241129, Time     :  042636.561

          Computational steps:
          | Number of self-consistency cycles          :           25
          | Number of SCF (re)initializations          :            1

          Detailed time accounting                     :  max(cpu_time)    wall_clock(cpu1)
          | Total time                                  :      526.677 s         526.777 s
          | Preparation time                            :        0.293 s           0.294 s
          | Boundary condition initalization            :        0.103 s           0.103 s
          | Grid partitioning                           :        0.187 s           0.187 s
          | Preloading free-atom quantities on grid     :        1.511 s           1.512 s
          | Free-atom superposition energy              :        0.157 s           0.157 s
          | Total time for integrations                 :       76.236 s          76.231 s
          | Total time for solution of K.-S. equations  :      217.209 s         217.211 s
          | Total time for density update               :      164.486 s         164.481 s
          | Total time for mixing & preconditioning     :       25.161 s          25.162 s
          | Total time for Hartree multipole update     :        0.074 s           0.074 s
          | Total time for Hartree multipole sum        :       35.780 s          35.780 s
          | Total time for total energy evaluation      :        0.096 s           0.097 s
          | Total time for scaled ZORA corrections      :        0.000 s           0.000 s
          | Total time for band structures, DOS         :        5.295 s           5.342 s

          Partial memory accounting:
          | Residual value for overall tracked memory usage across tasks:     0.000000 MB (should be 0.000000 MB)
          | Peak values for overall tracked memory usage:
          |   Minimum:      351.384 MB (on task 0 after allocating gradient_basis_wave)
          |   Maximum:      351.384 MB (on task 0 after allocating gradient_basis_wave)
          |   Average:      351.384 MB
          | Largest tracked array allocation:
          |   Minimum:      338.037 MB (KS_eigenvector_complex on task 0)
          |   Maximum:      338.037 MB (KS_eigenvector_complex on task 0)
          |   Average:      338.037 MB
          Note:  These values currently only include a subset of arrays which are explicitly tracked.
          The "true" memory usage will be greater.

          Have a nice day.
------------------------------------------------------------
